Warning: no access to tty (Bad file descriptor).
Thus no job control in this shell.
----- GAMESS execution script 'rungms' -----
This job is running on host compute-0-13.local
under operating system Linux at Thu Mar 5 12:40:48 PST 2020
Available scratch disk space (Kbyte units) at beginning of the job is
Filesystem      1K-blocks     Used Available Use% Mounted on
/dev/sda5      1123698384 92820604 973773908   9% /state/partition1
GAMESS temporary binary files will be written to /state/partition1/scr/seva
GAMESS supplementary output files will be written to /home/seva/scr
Copying input file meth_cat_IRC.inp to your run's scratch directory...
cp meth_cat_IRC.inp /state/partition1/scr/seva/meth_cat_IRC.F05
unset echo
/home/sergey/scripts/mktmp.sh
My running nodes: [compute-0-13.local ]
Trying node compute-0-13.local
mkdir: cannot create directory ‘/tmp/8072.1.medium.q’: File exists
/home/apps/gamess/gamess2018c/ddikick.x /home/apps/gamess/gamess2018c/gamess.00.x meth_cat_IRC -ddi 1 12 compute-0-13.local:cpus=12 -scr /state/partition1/scr/seva

 Distributed Data Interface kickoff program.
 Initiating 12 compute processes on 1 nodes to run the following command:
 /home/apps/gamess/gamess2018c/gamess.00.x meth_cat_IRC 

          ******************************************************
          *         GAMESS VERSION = 14 FEB 2018 (R1)         *
          *             FROM IOWA STATE UNIVERSITY             *
          * M.W.SCHMIDT, K.K.BALDRIDGE, J.A.BOATZ, S.T.ELBERT, *
          *   M.S.GORDON, J.H.JENSEN, S.KOSEKI, N.MATSUNAGA,   *
          *          K.A.NGUYEN, S.J.SU, T.L.WINDUS,           *
          *       TOGETHER WITH M.DUPUIS, J.A.MONTGOMERY       *
          *         J.COMPUT.CHEM.  14, 1347-1363(1993)        *
          **************** 64 BIT INTEL VERSION ****************

  SINCE 1993, STUDENTS AND POSTDOCS WORKING AT IOWA STATE UNIVERSITY
  AND ALSO IN THEIR VARIOUS JOBS AFTER LEAVING ISU HAVE MADE IMPORTANT
  CONTRIBUTIONS TO THE CODE:
     IVANA ADAMOVIC, CHRISTINE AIKENS, YURI ALEXEEV, POOJA ARORA,
     ANDREY ASADCHEV, ROB BELL, PRADIPTA BANDYOPADHYAY, JONATHAN BENTZ,
     BRETT BODE, KURT BRORSEN, CALEB CARLIN, GALINA CHABAN, WEI CHEN,
     CHEOL HO CHOI, PAUL DAY, ALBERT DEFUSCO, NUWAN DESILVA, TIM DUDLEY,
     DMITRI FEDOROV, ALEX FINDLATER, GRAHAM FLETCHER, MARK FREITAG,
     KURT GLAESEMANN, ANASTASIA GUININA,
     DAN KEMP, GRANT MERRILL, NORIYUKI MINEZAWA, JONATHAN MULLIN,
     TAKESHI NAGATA, SEAN NEDD, HEATHER NETZLOFF, BOSILJKA NJEGIC, RYAN OLSON,
     MIKE PAK, BUU PHAM,
     SPENCER PRUITT, LUKE ROSKOP, JIM SHOEMAKER, LYUDMILA SLIPCHENKO,
     TONY SMITH, SAROM SOK LEANG, JIE SONG, TETSUYA TAKETSUGU, SIMON WEBB,
     PENG XU, SOOHAENG YOO, FEDERICO ZAHARIEV

  ADDITIONAL CODE HAS BEEN PROVIDED BY COLLABORATORS IN OTHER GROUPS:
     IOWA STATE UNIVERSITY:
          JOE IVANIC, AARON WEST, LAIMUTIS BYTAUTAS, KLAUS RUEDENBERG
     UNIVERSITY OF TOKYO: KIMIHIKO HIRAO, TAKAHITO NAKAJIMA,
          TAKAO TSUNEDA, MUNEAKI KAMIYA, SUSUMU YANAGISAWA,
          KIYOSHI YAGI, MAHITO CHIBA, SEIKEN TOKURA, NAOAKI KAWAKAMI
     UNIVERSITY OF AARHUS: FRANK JENSEN
     UNIVERSITY OF IOWA: VISVALDAS KAIRYS, HUI LI
     NATIONAL INST. OF STANDARDS AND TECHNOLOGY: WALT STEVENS, DAVID GARMER
     UNIVERSITY OF PISA: BENEDETTA MENNUCCI, JACOPO TOMASI
     UNIVERSITY OF MEMPHIS: HENRY KURTZ, PRAKASHAN KORAMBATH
     UNIVERSITY OF ALBERTA: TOBY ZENG, MARIUSZ KLOBUKOWSKI
     UNIVERSITY OF NEW ENGLAND: MARK SPACKMAN
     MIE UNIVERSITY: HIROAKI UMEDA
     NAT. INST. OF ADVANCED INDUSTRIAL SCIENCE AND TECHNOLOGY: KAZUO KITAURA
     MICHIGAN STATE UNIVERSITY:
          KAROL KOWALSKI, MARTA WLOCH, JEFFREY GOUR, JESSE LUTZ,
          WEI LI, PIOTR PIECUCH
     UNIVERSITY OF SILESIA: MONIKA MUSIAL, STANISLAW KUCHARSKI
     FACULTES UNIVERSITAIRES NOTRE-DAME DE LA PAIX:
          OLIVIER QUINET, BENOIT CHAMPAGNE
     UNIVERSITY OF CALIFORNIA - SANTA BARBARA: BERNARD KIRTMAN
     INSTITUTE FOR MOLECULAR SCIENCE:
          KAZUYA ISHIMURA, MICHIO KATOUDA, AND SHIGERU NAGASE
     UNIVERSITY OF NOTRE DAME: ANNA POMOGAEVA, DAN CHIPMAN
     KYUSHU UNIVERSITY:
          HARUYUKI NAKANO,
          FENG LONG GU, JACEK KORCHOWIEC, MARCIN MAKOWSKI, AND YURIKO AOKI,
          HIROTOSHI MORI AND EISAKU MIYOSHI
     PENNSYLVANIA STATE UNIVERSITY:
          TZVETELIN IORDANOV, CHET SWALINA, JONATHAN SKONE,
          SHARON HAMMES-SCHIFFER
     WASEDA UNIVERSITY:
          MASATO KOBAYASHI, TOMOKO AKAMA, TSUGUKI TOUMA,
          TAKESHI YOSHIKAWA, YASUHIRO IKABATA, JUNJI SEINO,
          YUYA NAKAJIMA, HIROMI NAKAI
     NANJING UNIVERSITY: SHUHUA LI
     UNIVERSITY OF NEBRASKA:
          PEIFENG SU, DEJUN SI, NANDUN THELLAMUREGE, YALI WANG, HUI LI
     UNIVERSITY OF ZURICH: ROBERTO PEVERATI, KIM BALDRIDGE
     N. COPERNICUS UNIVERSITY AND JACKSON STATE UNIVERSITY:
          MARIA BARYSZ
     UNIVERSITY OF COPENHAGEN: Jimmy Kromann, CASPER STEINMANN
     TOKYO INSTITUTE OF TECHNOLOGY: HIROYA NAKATA
     NAGOYA UNIVERSITY: YOSHIO NISHIMOTO, STEPHAN IRLE
     MOSCOW STATE UNIVERSITY: VLADIMIR MIRONOV


 PARALLEL VERSION RUNNING ON       12 PROCESSORS IN        1 NODES.

 EXECUTION OF GAMESS BEGUN Thu Mar  5 12:40:49 2020

            ECHO OF THE FIRST FEW INPUT CARDS -
 INPUT CARD> $contrl scftyp=uhf dfttyp=b3lyp runtyp=irc                                     
 INPUT CARD> icharg=1 mult=3 ispher=1 maxit=200 $end                                        
 INPUT CARD> $system mwords=500 $end                                                        
 INPUT CARD> $SCF DIRSCF=.T. SHIFT=.t. damp=.t. $END                                        
 INPUT CARD> $statpt hess=read nstep=400 $end                                               
 INPUT CARD> $irc pace=gs2 stride=0.10 npoint=40 $end                                       
 INPUT CARD> $dft nleb0=302 nrad0=96 DC=.t. IDCVER=3 $end                                   
 INPUT CARD> $basis gbasis=cct $END                                                         
 INPUT CARD> $DATA                                                                          
 INPUT CARD> CH3O                                                                           
 INPUT CARD>C1                                                                              
 INPUT CARD>CARBON      6.0     -1.995582544         0.117805253        -2.265569761        
 INPUT CARD>HYDROGEN    1.0     -1.528874436        -0.977384735        -2.620119942        
 INPUT CARD>HYDROGEN    1.0     -1.117725795         0.783615545        -2.152576439        
 INPUT CARD>HYDROGEN    1.0     -2.643329830        -0.111549650        -1.396866418        
 INPUT CARD>OXYGEN      8.0     -2.488517471        -0.033521029        -3.440101181        
 INPUT CARD> $END                                                                           
 INPUT CARD>                                                                                
 INPUT CARD> $HESS                                                                          
 INPUT CARD>ENERGY IS     -114.6214988917 E(NUC) IS       35.7480086589                     
 INPUT CARD> 1  1 4.11676108E-01 1.37888916E-01 3.10705469E-02-3.01304092E-02 1.23736805E-02
 INPUT CARD> 1  2 1.47619269E-02-1.74622927E-01-1.14191606E-01-1.78566776E-02-1.19651025E-01
 INPUT CARD> 1  3-2.84692620E-02 1.19177340E-01-8.73566886E-02-7.64157203E-03-1.47086974E-01
 INPUT CARD> 2  1 1.37888916E-01 2.42321176E-01-2.60129224E-04 2.68776342E-02-8.15769936E-02
 INPUT CARD> 2  2-6.15216240E-03-1.13605025E-01-1.14883968E-01-9.60398750E-03-3.15168436E-02
 INPUT CARD> 2  3-3.56261201E-02 4.58444808E-02-1.96958244E-02-1.02897729E-02-2.99082039E-02
 INPUT CARD> 3  1 3.10705469E-02-2.60129224E-04 5.39983818E-01 3.24307162E-02-3.56329763E-02
 INPUT CARD> 3  2-7.84286874E-03-4.45930465E-03 2.28044194E-03-2.28541864E-02 1.02856294E-01
 INPUT CARD> 3  3 3.88389294E-02-1.57740414E-01-1.61938663E-01-5.23237625E-03-3.51613260E-01
 INPUT CARD> 4  1-3.01304092E-02 2.68776342E-02 3.24307162E-02 5.62471169E-02-4.76998449E-02
 INPUT CARD> 4  2 4.14113083E-03 4.72694922E-03-1.16263352E-02 9.38640077E-05-7.72097202E-03
 INPUT CARD> 4  3 1.13201091E-02 4.14919335E-03-2.30962165E-02 2.11035411E-02-4.08256759E-02
 INPUT CARD> 5  1 1.23736805E-02-8.15769936E-02-3.56329763E-02-4.76998449E-02 1.09738812E-01
 INPUT CARD> 5  2 2.34767020E-03 3.81024739E-03-1.64587471E-02-2.25267683E-03 8.37528415E-04
 INPUT CARD> 5  3-3.48218784E-04-1.96312693E-03 3.06848108E-02-1.13420979E-02 3.75217983E-02
 INPUT CARD> 6  1 1.47619269E-02-6.15216240E-03-7.84286874E-03 4.14113083E-03 2.34767020E-03
 INPUT CARD> 6  2 3.75387333E-02 4.38655720E-04-2.28447827E-03 1.07389528E-03 9.82846351E-03
 INPUT CARD> 6  3-1.18768244E-02-2.46689115E-03-2.91668978E-02 1.79630923E-02-2.82735044E-02
 INPUT CARD> 7  1-1.74622927E-01-1.13605025E-01-4.45930465E-03 4.72694922E-03 3.81024739E-03
 INPUT CARD> 7  2 4.38655720E-04 1.91681954E-01 1.32534415E-01 2.37899838E-02-7.32175586E-03
 INPUT CARD> 7  3-1.07220782E-02-2.47858757E-03-1.44692377E-02-1.20303754E-02-1.72846382E-02
 INPUT CARD> 8  1-1.14191606E-01-1.14883968E-01 2.28044194E-03-1.16263352E-02-1.64587471E-02
 INPUT CARD> 8  2-2.28447827E-03 1.32534415E-01 1.28771321E-01 1.74149042E-02-1.76935894E-03
 INPUT CARD> 8  3-3.85339843E-04-3.66117931E-03-4.96333129E-03 2.97284022E-03-1.37148536E-02
 INPUT CARD> 9  1-1.78566776E-02-9.60398750E-03-2.28541864E-02 9.38640077E-05-2.25267683E-03
 INPUT CARD> 9  2 1.07389528E-03 2.37899838E-02 1.74149042E-02 3.93759986E-02 1.54385751E-02
 INPUT CARD> 9  3 1.12087608E-02 3.39624962E-03-2.14976367E-02-1.67952711E-02-2.09709504E-02
 INPUT CARD>10  1-1.19651025E-01-3.15168436E-02 1.02856294E-01-7.72097202E-03 8.37528415E-04
 INPUT CARD>10  2 9.82846351E-03-7.32175586E-03-1.76935894E-03 1.54385751E-02 1.25088771E-01
 INPUT CARD>10  3 3.28313066E-02-1.21965412E-01 9.61578279E-03-3.68378744E-04-6.18585541E-03
  500000000 WORDS OF MEMORY AVAILABLE

     BASIS OPTIONS
     -------------
     GBASIS=CCT          IGAUSS=       0      POLAR=NONE    
     NDFUNC=       0     NFFUNC=       0     DIFFSP=       F
     NPFUNC=       0      DIFFS=       F     BASNAM=        


     RUN TITLE
     ---------
  CH3O                                                                           

 THE POINT GROUP OF THE MOLECULE IS C1      
 THE ORDER OF THE PRINCIPAL AXIS IS     0

 ATOM      ATOMIC                      COORDINATES (BOHR)
           CHARGE         X                   Y                   Z
 CARBON      6.0    -3.7711041940        0.2226196481       -4.2813060544
 HYDROGEN    1.0    -2.8891537537       -1.8469893337       -4.9513087453
 HYDROGEN    1.0    -2.1121954820        1.4808186598       -4.0677796373
 HYDROGEN    1.0    -4.9951690739       -0.2107982725       -2.6396947715
 OXYGEN      8.0    -4.7026161358       -0.0633455596       -6.5008486021

          INTERNUCLEAR DISTANCES (ANGS.)
          ------------------------------

                1 CARB       2 HYDR       3 HYDR       4 HYDR       5 OXYG  

   1 CARB    0.0000000    1.2421608 *  1.1075664 *  1.1076216 *  1.2827348 *
   2 HYDR    1.2421608 *  0.0000000    1.8678228 *  1.8676269 *  1.5761227 *
   3 HYDR    1.1075664 *  1.8678228 *  0.0000000    1.9235088 *  2.0504882 *
   4 HYDR    1.1076216 *  1.8676269 *  1.9235088 *  0.0000000    2.0505764 *
   5 OXYG    1.2827348 *  1.5761227 *  2.0504882 *  2.0505764 *  0.0000000  

  * ... LESS THAN  3.000


     ATOMIC BASIS SET
     ----------------
 THE CONTRACTED PRIMITIVE FUNCTIONS HAVE BEEN UNNORMALIZED
 THE CONTRACTED BASIS FUNCTIONS ARE NOW NORMALIZED TO UNITY

  SHELL TYPE  PRIMITIVE        EXPONENT          CONTRACTION COEFFICIENT(S)

 CARBON    

      1   S       1          8236.0000000    0.000542430189
      1   S       2          1235.0000000    0.004196427901
      1   S       3           280.8000000    0.021540914108
      1   S       4            79.2700000    0.083614949614
      1   S       5            25.5900000    0.239871618922
      1   S       6             8.9970000    0.443751820060
      1   S       7             3.3190000    0.353579696469
      1   S       8             0.3643000   -0.009176366076

      2   S       9          8236.0000000   -0.000196392234
      2   S      10          1235.0000000   -0.001525950274
      2   S      11           280.8000000   -0.007890449028
      2   S      12            79.2700000   -0.031514870532
      2   S      13            25.5900000   -0.096910008320
      2   S      14             8.9970000   -0.220541526288
      2   S      15             3.3190000   -0.296069112937
      2   S      16             0.3643000    1.040503432950

      3   S      17             0.9059000    1.000000000000

      4   S      18             0.1285000    1.000000000000

      5   P      19            18.7100000    0.039426387165
      5   P      20             4.1330000    0.244088984924
      5   P      21             1.2000000    0.815492008943

      6   P      22             0.3827000    1.000000000000

      7   P      23             0.1209000    1.000000000000

      8   D      24             1.0970000    1.000000000000

      9   D      25             0.3180000    1.000000000000

     10   F      26             0.7610000    1.000000000000

 HYDROGEN  

     11   S      27            33.8700000    0.025494863235
     11   S      28             5.0950000    0.190362765893
     11   S      29             1.1590000    0.852162022245

     12   S      30             0.3258000    1.000000000000

     13   S      31             0.1027000    1.000000000000

     14   P      32             1.4070000    1.000000000000

     15   P      33             0.3880000    1.000000000000

     16   D      34             1.0570000    1.000000000000

 HYDROGEN  

     17   S      35            33.8700000    0.025494863235
     17   S      36             5.0950000    0.190362765893
     17   S      37             1.1590000    0.852162022245

     18   S      38             0.3258000    1.000000000000

     19   S      39             0.1027000    1.000000000000

     20   P      40             1.4070000    1.000000000000

     21   P      41             0.3880000    1.000000000000

     22   D      42             1.0570000    1.000000000000

 HYDROGEN  

     23   S      43            33.8700000    0.025494863235
     23   S      44             5.0950000    0.190362765893
     23   S      45             1.1590000    0.852162022245

     24   S      46             0.3258000    1.000000000000

     25   S      47             0.1027000    1.000000000000

     26   P      48             1.4070000    1.000000000000

     27   P      49             0.3880000    1.000000000000

     28   D      50             1.0570000    1.000000000000

 OXYGEN    

     29   S      51         15330.0000000    0.000520198307
     29   S      52          2299.0000000    0.004023344781
     29   S      53           522.4000000    0.020729083329
     29   S      54           147.3000000    0.081082327080
     29   S      55            47.5500000    0.236226352118
     29   S      56            16.7600000    0.443518209420
     29   S      57             6.2070000    0.358670588689
     29   S      58             0.6882000   -0.008349797237

     30   S      59         15330.0000000   -0.000197236012
     30   S      60          2299.0000000   -0.001535010700
     30   S      61           522.4000000   -0.007951183914
     30   S      62           147.3000000   -0.032113452892
     30   S      63            47.5500000   -0.100269643049
     30   S      64            16.7600000   -0.234047111838
     30   S      65             6.2070000   -0.301410927756
     30   S      66             0.6882000    1.034919649508

     31   S      67             1.7520000    1.000000000000

     32   S      68             0.2384000    1.000000000000

     33   P      69            34.4600000    0.041163489568
     33   P      70             7.7490000    0.257762835858
     33   P      71             2.2800000    0.802419274427

     34   P      72             0.7156000    1.000000000000

     35   P      73             0.2140000    1.000000000000

     36   D      74             2.3140000    1.000000000000

     37   D      75             0.6450000    1.000000000000

     38   F      76             1.4280000    1.000000000000

 TOTAL NUMBER OF BASIS SET SHELLS             =   38
 NUMBER OF CARTESIAN GAUSSIAN BASIS FUNCTIONS =  115
 NOTE: THIS RUN WILL RESTRICT THE MO VARIATION SPACE TO SPHERICAL HARMONICS.
 THE NUMBER OF ORBITALS KEPT IN THE VARIATIONAL SPACE WILL BE PRINTED LATER.
 NUMBER OF ELECTRONS                          =   16
 CHARGE OF MOLECULE                           =    1
 SPIN MULTIPLICITY                            =    3
 NUMBER OF OCCUPIED ORBITALS (ALPHA)          =    9
 NUMBER OF OCCUPIED ORBITALS (BETA )          =    7
 TOTAL NUMBER OF ATOMS                        =    5
 THE NUCLEAR REPULSION ENERGY IS       35.7480086784

     LEBEDEV GRID-BASED DFT OPTIONS
     ------------------------------
     DFTTYP=B3LYP   
     NRAD  =      96     NLEB  =     302
     NRAD0 =      96     NLEB0 =     302
     SWOFF =    5.00E-03 (PURE SCF -> DFT)
     SWITCH=    3.00E-04 (COARSE -> TIGHT GRID)
     THRESH=    0.00E+00 GTHRE=    1.00E+00

 GRIMME'S EMPIRICAL DISPERSION CORRECTION= T
  ________________________________
 
           DFTD3 V1.2             
   S.GRIMME, UNIVERSITY MUENSTER  
   WED MAR 10 08:38:00 CET 2010   
  ________________________________
 
 PLEASE CITE DFT-D3 WORK DONE WITH THIS CODE AS:
 S. GRIMME, J. ANTONY, S. EHRLICH AND H. KRIEG,
 J. CHEM. PHYS, 132 (2010), 154104.
 IF USED WITH BJ-DAMPING CITE ALSO
 S. GRIMME, S. EHRLICH AND L. GOERIGK,
 J. COMPUT. CHEM. 32 (2011), 1456-1465
 
 DFT-D3 PARAMETERS WILL BE LOADED AND PRINTED
 BEFORE THE RESULTS
 
 IMPLEMENTATION OF DFT-D IN GAMESS BY:
 R.PEVERATI AND K.K.BALDRIDGE, 
 J.CHEM.THEORY COMPUT. 4,(2008), 2030-2048
 

     $CONTRL OPTIONS
     ---------------
 SCFTYP=UHF          RUNTYP=IRC          EXETYP=RUN     
 MPLEVL=       0     CITYP =NONE         CCTYP =NONE         VBTYP =NONE    
 DFTTYP=B3LYP        TDDFT =NONE    
 MULT  =       3     ICHARG=       1     NZVAR =       0     COORD =UNIQUE  
 PP    =NONE         RELWFN=NONE         LOCAL =NONE         NUMGRD=       F
 ISPHER=       1     NOSYM =       0     MAXIT =     200     UNITS =ANGS    
 PLTORB=       F     MOLPLT=       F     AIMPAC=       F     FRIEND=        
 NPRINT=       7     IREST =       0     GEOM  =INPUT   
 NORMF =       0     NORMP =       0     ITOL  =      20     ICUT  =       9
 INTTYP=BEST         GRDTYP=BEST         QMTTOL= 1.0E-06

     $SYSTEM OPTIONS
     ---------------
  REPLICATED MEMORY=   500000000 WORDS (ON EVERY NODE).
 DISTRIBUTED MEMDDI=           0 MILLION WORDS IN AGGREGATE,
 MEMDDI DISTRIBUTED OVER  12 PROCESSORS IS           0 WORDS/PROCESSOR.
 TOTAL MEMORY REQUESTED ON EACH PROCESSOR=   500000000 WORDS.
 TIMLIM=      525600.00 MINUTES, OR     365.0 DAYS.
 PARALL= T  BALTYP=  DLB     KDIAG=    0  COREFL= F
 MXSEQ2=     300 MXSEQ3=     150  mem10=         0

          ----------------
          PROPERTIES INPUT
          ----------------

     MOMENTS            FIELD           POTENTIAL          DENSITY
 IEMOM =       1   IEFLD =       0   IEPOT =       0   IEDEN =       0
 WHERE =COMASS     WHERE =NUCLEI     WHERE =NUCLEI     WHERE =NUCLEI  
 OUTPUT=BOTH       OUTPUT=BOTH       OUTPUT=BOTH       OUTPUT=BOTH    
 IEMINT=       0   IEFINT=       0                     IEDINT=       0
                                                       MORB  =       0
          EXTRAPOLATION IN EFFECT
          DAMPING IN EFFECT
          LEVEL SHIFTING IN EFFECT
          DIIS IN EFFECT
          DIIS or SOSCF will be reset if energy rises
 ORBITAL PRINTING OPTION: NPREO=     1   115     2     1

     -------------------------------
     INTEGRAL TRANSFORMATION OPTIONS
     -------------------------------
     NWORD  =            0
     CUTOFF = 1.0E-09     MPTRAN =       0
     DIRTRF =       T     AOINTS =DUP     

          ----------------------
          INTEGRAL INPUT OPTIONS
          ----------------------
 NOPK  =       1 NORDER=       0 SCHWRZ=       T

     ------------------------------------------
     THE POINT GROUP IS C1 , NAXIS= 0, ORDER= 1
     ------------------------------------------

 -- VARIATIONAL SPACE WILL BE RESTRICTED TO PURE SPHERICAL HARMONICS ONLY --
 AFTER EXCLUDING CONTAMINANT COMBINATIONS FROM THE CARTESIAN GAUSSIAN BASIS
 SET, THE NUMBER OF SPHERICAL HARMONICS KEPT IN THE VARIATION SPACE IS  102

     DIMENSIONS OF THE SYMMETRY SUBSPACES ARE
 A   =  102

 ..... DONE SETTING UP THE RUN .....
 CPU     0: STEP CPU TIME=     0.04 TOTAL CPU TIME=          0.0 (      0.0 MIN)
 TOTAL WALL CLOCK TIME=          0.1 SECONDS, CPU UTILIZATION IS    40.00%

          -----------------------------
          INTRINSIC REACTION COORDINATE
          -----------------------------
          PACE   =GS2     
          STRIDE = 0.10000 BOHR*SQRT(AMU)
          NPOINT =      40
          NEXTPT =       0
          STOTAL =  0.0000 BOHR*SQRT(AMU)
          SAB    =  0.0000 BOHR*SQRT(AMU)
          NPRT   =       0
          NPUN   =       0

          SADDLE =       F
          TSENGY =       F
          FORWRD =       T
          EVIB   = 0.00050 HARTREE
          FREQ   =     0.0 CM**-1

          STABLZ =       F
          ELBOW  =  175.00 DEGREES
          DELTA  = 0.02500 BOHR

          READQB =       F
          EB     =        0.0000000000 HARTREES
          GBNORM =        0.0000000000 HARTREES/SQRT(AMU)-BOHR

          GCUT   = 0.0000500 HARTREES/SQRT(AMU)-BOHR
          RCUT   = 0.0005000 BOHR
          ACUT   =    5.00 DEGREES
          MXOPT  =      20
          IHUPD  =       2

 ATOMIC MASSES USED (IN AMU) ARE
     CARBON        12.0000
     HYDROGEN       1.0078
     HYDROGEN       1.0078
     HYDROGEN       1.0078
     OXYGEN        15.9949
 WARNING! GRADIENTS FROM PREVIOUS IRC POINT NOT FOUND IN $IRC GROUP. GENERATING NEW GRADIENTS AT CURRENT POINT

1         POINT   0 ON THE REACTION PATH
          ******************************
          AT PATH DISTANCE STOTAL =   0.00000     SQRT(AMU)-BOHR
          TOTAL ENERGY            =     0.0000000 HARTREE
 COORDINATES OF SYMMETRY UNIQUE ATOMS (ANGS)
   ATOM   CHARGE       X              Y              Z
 ------------------------------------------------------------
 CARBON      6.0  -1.9955825440   0.1178052530  -2.2655697610
 HYDROGEN    1.0  -1.5288744360  -0.9773847350  -2.6201199420
 HYDROGEN    1.0  -1.1177257950   0.7836155450  -2.1525764390
 HYDROGEN    1.0  -2.6433298300  -0.1115496500  -1.3968664180
 OXYGEN      8.0  -2.4885174710  -0.0335210290  -3.4401011810

          INTERNUCLEAR DISTANCES (ANGS.)
          ------------------------------

                1 CARB       2 HYDR       3 HYDR       4 HYDR       5 OXYG  

   1 CARB    0.0000000    1.2421608 *  1.1075664 *  1.1076216 *  1.2827348 *
   2 HYDR    1.2421608 *  0.0000000    1.8678228 *  1.8676269 *  1.5761227 *
   3 HYDR    1.1075664 *  1.8678228 *  0.0000000    1.9235088 *  2.0504882 *
   4 HYDR    1.1076216 *  1.8676269 *  1.9235088 *  0.0000000    2.0505764 *
   5 OXYG    1.2827348 *  1.5761227 *  2.0504882 *  2.0505764 *  0.0000000  

  * ... LESS THAN  3.000


          ********************
          1 ELECTRON INTEGRALS
          ********************
 ...... END OF ONE-ELECTRON INTEGRALS ......
 CPU     0: STEP CPU TIME=     0.01 TOTAL CPU TIME=          0.0 (      0.0 MIN)
 TOTAL WALL CLOCK TIME=          0.1 SECONDS, CPU UTILIZATION IS    45.45%

          -------------
          GUESS OPTIONS
          -------------
          GUESS =HUCKEL            NORB  =       0          NORDER=       0
          MIX   =       F          PRTMO =       F          PUNMO =       F
          TOLZ  = 1.0E-08          TOLE  = 1.0E-05
          SYMDEN=       F          PURIFY=       F

 INITIAL GUESS ORBITALS GENERATED BY HUCKEL   ROUTINE.
 HUCKEL GUESS REQUIRES     99508 WORDS.

 STATISTICS FOR GENERATION OF SYMMETRY ORBITAL -Q- MATRIX
 NUMBER OF CARTESIAN ATOMIC ORBITALS=        115
 NUMBER OF SPHERICAL CONTAMINANTS DROPPED=    13
 NUMBER OF LINEARLY DEPENDENT MOS DROPPED=     0
 TOTAL NUMBER OF MOS IN VARIATION SPACE=     102

 SYMMETRIES FOR INITIAL GUESS ORBITALS FOLLOW.  ALPHA SET(S).
     9 ORBITALS ARE OCCUPIED (    2 CORE ORBITALS).
     3=A        4=A        5=A        6=A        7=A        8=A        9=A   
    10=A       11=A       12=A       13=A       14=A       15=A       16=A   
    17=A       18=A       19=A   

 SYMMETRIES FOR INITIAL GUESS ORBITALS FOLLOW.   BETA SET(S).
     7 ORBITALS ARE OCCUPIED (    2 CORE ORBITALS).
     3=A        4=A        5=A        6=A        7=A        8=A        9=A   
    10=A       11=A       12=A       13=A       14=A       15=A       16=A   
    17=A   
 ...... END OF INITIAL ORBITAL SELECTION ......
 CPU     0: STEP CPU TIME=     0.01 TOTAL CPU TIME=          0.1 (      0.0 MIN)
 TOTAL WALL CLOCK TIME=          0.1 SECONDS, CPU UTILIZATION IS    42.86%

                    ----------------------
                    AO INTEGRAL TECHNOLOGY
                    ----------------------
     S,P,L SHELL ROTATED AXIS INTEGRALS, REPROGRAMMED BY
        KAZUYA ISHIMURA (IMS) AND JOSE SIERRA (SYNSTAR).
     S,P,D,L SHELL ROTATED AXIS INTEGRALS PROGRAMMED BY
        KAZUYA ISHIMURA (INSTITUTE FOR MOLECULAR SCIENCE).
     S,P,D,F,G SHELL TO TOTAL QUARTET ANGULAR MOMENTUM SUM 5,
        ERIC PROGRAM BY GRAHAM FLETCHER (ELORET AND NASA ADVANCED
        SUPERCOMPUTING DIVISION, AMES RESEARCH CENTER).
     S,P,D,F,G,L SHELL GENERAL RYS QUADRATURE PROGRAMMED BY
        MICHEL DUPUIS (PACIFIC NORTHWEST NATIONAL LABORATORY).

          --------------------
          2 ELECTRON INTEGRALS
          --------------------

 DIRECT SCF METHOD SKIPS INTEGRAL STORAGE ON DISK.
 DIRECT TRANSFORMATION SKIPS AO INTEGRAL STORAGE ON DISK.
  ...... END OF TWO-ELECTRON INTEGRALS .....
 CPU     0: STEP CPU TIME=     0.01 TOTAL CPU TIME=          0.1 (      0.0 MIN)
 TOTAL WALL CLOCK TIME=          0.2 SECONDS, CPU UTILIZATION IS    46.67%

          ---------------------------
              U-B3LYP SCF CALCULATION
          ---------------------------

     NUCLEAR ENERGY =        35.7480086784
     MAXIT =200     NPUNCH=  2     MULT=  3
     EXTRAP=T  DAMP=T  SHIFT=T  RSTRCT=F  DIIS=T  SOSCF=F
         DENSITY MATRIX CONVERGENCE THRESHOLD=  2.00E-05
     COARSE -> FINE DFT GRID SWITCH THRESHOLD=  3.00E-04 (SWITCH IN $DFT)
                   HF -> DFT SWITCH THRESHOLD=  5.00E-03 (SWOFF IN $DFT)
     MEMORY REQUIRED FOR UHF/ROHF ITERS=    418879 WORDS.

 DIRECT SCF CALCULATION, SCHWRZ=T   FDIFF=T
 SCHWARZ INEQUALITY OVERHEAD:      6670 INTEGRALS, T=        0.00

     EXCHANGE FUNCTIONAL   =B88&HFX   
     CORRELATION FUNCTIONAL=LYP88&VWN5
     DFT THRESHOLD         =.690E-08
 FOR AN EULER-MACLAURIN QUADRATURE USING  96 RADIAL POINTS:
 SMALLEST GAUSSIAN PRIMITIVE EXPONENT=        0.1027000000 OF TYPE -S-
 ON ATOM NUMBER   2 HAS RADIAL NORMALIZATION=  1.000000
  LARGEST GAUSSIAN PRIMITIVE EXPONENT=    15330.0000000000 OF TYPE -S-
 ON ATOM NUMBER   5 HAS RADIAL NORMALIZATION=  1.000000
 DFT IS SWITCHED OFF, PERFORMING PURE SCF UNTIL SWOFF THRESHOLD IS REACHED.

                                                                                                                NONZERO     BLOCKS
 ITER EX      TOTAL ENERGY        E CHANGE  DENSITY CHANGE    DIIS ERROR      VIR. SHIFT       DAMPING        INTEGRALS    SKIPPED
          * * *   INITIATING DIIS PROCEDURE   * * *
   1  0     -113.5887489966  -113.5887489966   0.433000789   0.393310076     0.000000000     1.000000000       21867969        172
   2  1     -114.0364797075    -0.4477307109   0.031192154   0.077654465     0.000000000     1.000000000       21870712        197
   3  2     -114.0657942279    -0.0293145204   0.019853584   0.032096440     0.000000000     1.000000000       21858720        534
   4  3     -114.0698517695    -0.0040575415   0.007578084   0.013596195     0.000000000     1.000000000       21811185       1083
   5  4     -114.0709868909    -0.0011351214   0.004962307   0.006672821     0.000000000     1.000000000       21787432       1397
 CONVERGED TO SWOFF, SO DFT CALCULATION IS NOW SWITCHED ON.
          * * *   INITIATING DIIS PROCEDURE   * * *
   6  5     -114.5972687123    -0.5262818214   0.042186860   0.057077111       21865936        212
   7  6     -114.6173745645    -0.0201058522   0.023686500   0.025145379       21846670        477
   8  7     -114.6165005069     0.0008740576   0.014653298   0.027721874       21825459        898
   9  8     -114.6206310041    -0.0041304972   0.003991332   0.009050604       21797340       1120
  10  9     -114.6209297142    -0.0002987101   0.001399362   0.001688093       21718098       2323
  11 10     -114.6209536454    -0.0000239312   0.000232696   0.000282601       21642227       2942
  12 11     -114.6209540337    -0.0000003883   0.000063885   0.000092539       21288002       7753
  13 12     -114.6209540891    -0.0000000554   0.000034218   0.000033813       20957086      11932
  14 13     -114.6209540953    -0.0000000062   0.000010409   0.000011546       20479172      17349
  15 14     -114.6209540960    -0.0000000007   0.000003743   0.000001775       19658719      25595

          -----------------
          DENSITY CONVERGED
          -----------------
     TIME TO FORM FOCK OPERATORS=       4.5 SECONDS (       0.3 SEC/ITER)
     FOCK TIME ON FIRST ITERATION=       0.2, LAST ITERATION=       0.4
     TIME TO SOLVE SCF EQUATIONS=       0.3 SECONDS (       0.0 SEC/ITER)

          ----------------------------
          DFT-D PARAMETERS AND RESULTS
          ----------------------------
 C6 COEFFICIENTS USED:
       2 C6 FOR ELEMENT   1
  Z=  1 CN= 0.912     C6(AA)=    3.03
  Z=  1 CN= 0.000     C6(AA)=    7.59
       5 C6 FOR ELEMENT   6
  Z=  6 CN= 0.000     C6(AA)=   49.11
  Z=  6 CN= 0.987     C6(AA)=   43.25
  Z=  6 CN= 1.998     C6(AA)=   29.36
  Z=  6 CN= 2.999     C6(AA)=   25.78
  Z=  6 CN= 3.984     C6(AA)=   18.21
       3 C6 FOR ELEMENT   8
  Z=  8 CN= 0.000     C6(AA)=   15.51
  Z=  8 CN= 0.993     C6(AA)=   12.82
  Z=  8 CN= 1.989     C6(AA)=   10.37

 #          XYZ [AU]             R0(AA) [ANG.]  CN         C6(AA)     C8(AA)   C10(AA) [AU]
  1  -3.77110   0.22262  -4.28131    6  1.455  3.894        18.5       534.3     18930.9
  2  -2.88915  -1.84699  -4.95131    1  1.091  0.957         3.1        37.6       557.4
  3  -2.11220   1.48082  -4.06778    1  1.091  0.993         3.1        37.4       553.9
  4  -4.99517  -0.21080  -2.63969    1  1.091  0.993         3.1        37.4       553.9
  5  -4.70262  -0.06335  -6.50085    8  1.241  1.045        12.8       257.8      6373.2

     MOLECULAR C6(AA) [AU] =       171.41

           DFT-D V3(BJ)
 
 FUNCTIONAL: B3LYP   
 
 PARAMETERS
 S6       :    1.0000
 RS6      :    1.2610
 S18      :    1.7030
 RS18     :    1.0000
 ALPHA6   :   14.0000
 ALPHA8   :   16.0000
 K1-K3    :   16.0000    1.3333    4.0000
 
 EDISP /KCAL,AU:    -0.3419 -0.00054480

 E6    /KCAL :    -0.0092
 E8    /KCAL :    -0.3327
 % E8        : 97.31

 FINAL U-B3LYP ENERGY IS     -114.6214988943 AFTER  15 ITERATIONS
 DFT EXCHANGE + CORRELATION ENERGY =       -11.8389615790
 TOTAL ELECTRON NUMBER             =        15.9999882882
 GRIMME'S DISPERSION ENERGY                     =       -0.0005447982
 ENERGY WITHOUT GRIMME'S DISPERSION CORRECTION IS     -114.6209540960

          --------------------
          SPIN SZ   =    1.000
          S-SQUARED =    2.008
          --------------------

  ----- ALPHA SET ----- 

          ------------
          EIGENVECTORS
          ------------

                      1          2          3          4          5
                  -19.6056   -10.5802    -1.4699    -1.0016    -0.8626
                     A          A          A          A          A   
    1  C  1  S    0.000370   0.979407  -0.020893  -0.020707  -0.000014
    2  C  1  S    0.000824   0.012521   0.187245   0.395195   0.000392
    3  C  1  S   -0.000083   0.050227   0.046961   0.103641   0.000105
    4  C  1  S   -0.001576   0.017684   0.013134   0.152850   0.000230
    5  C  1  X   -0.000086  -0.000390  -0.031162   0.030628   0.158374
    6  C  1  Y    0.000046  -0.000262  -0.014951  -0.017546   0.093636
    7  C  1  Z   -0.000119  -0.001097  -0.080628   0.041065  -0.078272
    8  C  1  X   -0.000586   0.000975  -0.023607   0.031683   0.169596
    9  C  1  Y   -0.000361   0.000306  -0.015956  -0.023330   0.100330
   10  C  1  Z   -0.001611   0.002325  -0.066570   0.036286  -0.083857
   11  C  1  X    0.000190   0.000717   0.000363   0.012938   0.050235
   12  C  1  Y    0.000080  -0.000471   0.001510  -0.006064   0.029699
   13  C  1  Z    0.000478   0.000887   0.002514   0.018929  -0.024863
   14  C  1 XX   -0.000126   0.000010  -0.004170   0.000868  -0.004113
   15  C  1 YY   -0.000254  -0.000653  -0.006731   0.002507   0.000896
   16  C  1 ZZ    0.000380   0.000643   0.010900  -0.003375   0.003217
   17  C  1 XY    0.000044   0.001010   0.001858   0.002480  -0.000481
   18  C  1 XZ    0.000315  -0.000167   0.007909  -0.005811  -0.002556
   19  C  1 YZ    0.000067   0.000332   0.003596   0.002112  -0.002704
   20  C  1 XX   -0.000306   0.000773  -0.006131   0.001495  -0.010906
   21  C  1 YY    0.000005  -0.000877  -0.005529   0.004133  -0.005454
   22  C  1 ZZ    0.000301   0.000105   0.011661  -0.005627   0.016360
   23  C  1 XY   -0.000297   0.002253   0.001744   0.002015  -0.009036
   24  C  1 XZ    0.000377  -0.001331   0.007135  -0.007551  -0.015916
   25  C  1 YZ    0.000254  -0.000055   0.007311   0.001814  -0.008638
   26  C  1 XXX  -0.000100   0.000612   0.002626   0.000228  -0.000985
   27  C  1 YYY  -0.000001  -0.000172   0.000427  -0.000677  -0.001072
   28  C  1 ZZZ  -0.000012  -0.000411  -0.002880  -0.000385  -0.004709
   29  C  1 XXY  -0.000093   0.000888   0.001871   0.001534  -0.000066
   30  C  1 XXZ  -0.000020   0.000674   0.002166   0.001337   0.004714
   31  C  1 YYX   0.000047   0.001404   0.003872   0.003563  -0.000687
   32  C  1 YYZ   0.000037  -0.000123   0.001697  -0.000821   0.001604
   33  C  1 ZZX   0.000086  -0.002225  -0.007395  -0.003869   0.002008
   34  C  1 ZZY   0.000095  -0.000658  -0.002444  -0.000626   0.001505
   35  C  1 XYZ  -0.000087   0.000658   0.000541   0.001244   0.002649
   36  H  2  S   -0.000240   0.000611   0.029151   0.074184  -0.000417
   37  H  2  S    0.000109  -0.003328   0.020487   0.099371  -0.000626
   38  H  2  S    0.000168  -0.001985   0.002461   0.003668  -0.000112
   39  H  2  X    0.000059   0.000111  -0.003026  -0.002338   0.003080
   40  H  2  Y   -0.000104  -0.000279   0.003947   0.006836   0.001761
   41  H  2  Z   -0.000005  -0.000106  -0.001436   0.003373  -0.001510
   42  H  2  X   -0.000069   0.000740  -0.000043  -0.003249   0.008097
   43  H  2  Y    0.000131  -0.001904   0.000477   0.012371   0.004667
   44  H  2  Z    0.000016  -0.000760   0.000478   0.008085  -0.003982
   45  H  2 XX   -0.000002   0.000347   0.000078  -0.000899  -0.001597
   46  H  2 YY    0.000003  -0.000759   0.000337   0.001742   0.001540
   47  H  2 ZZ   -0.000001   0.000412  -0.000415  -0.000843   0.000058
   48  H  2 XY   -0.000124   0.000665  -0.000783  -0.001036   0.000992
   49  H  2 XZ    0.000117   0.000195   0.000315  -0.000891   0.000391
   50  H  2 YZ   -0.000088  -0.000517  -0.000498   0.001714  -0.000795
   51  H  3  S    0.000098   0.000067   0.011048   0.088645   0.091052
   52  H  3  S    0.000672  -0.009730   0.004487   0.106369   0.132445
   53  H  3  S    0.000010  -0.002627  -0.000591   0.004191   0.015458
   54  H  3  X   -0.000061   0.000997  -0.000173  -0.007027  -0.007343
   55  H  3  Y   -0.000069   0.000708  -0.000050  -0.006205  -0.005724
   56  H  3  Z    0.000015   0.000123  -0.000659  -0.000283  -0.003761
   57  H  3  X   -0.000091   0.003985   0.003039  -0.009599  -0.010665
   58  H  3  Y   -0.000138   0.003160   0.001521  -0.008601  -0.008773
   59  H  3  Z   -0.000044   0.000544  -0.003308   0.000269  -0.003865
   60  H  3 XX   -0.000002  -0.000813  -0.000528   0.000958   0.001418
   61  H  3 YY    0.000067  -0.000082  -0.000161   0.000368   0.000052
   62  H  3 ZZ   -0.000065   0.000895   0.000689  -0.001326  -0.001470
   63  H  3 XY   -0.000002  -0.001355  -0.000491   0.002480   0.002454
   64  H  3 XZ   -0.000061  -0.000211   0.000913   0.000066   0.001988
   65  H  3 YZ   -0.000025  -0.000157   0.000518   0.000088   0.001419
   66  H  4  S    0.000098   0.000067   0.011046   0.088645  -0.090606
   67  H  4  S    0.000672  -0.009726   0.004497   0.106430  -0.131837
   68  H  4  S    0.000010  -0.002626  -0.000588   0.004202  -0.015363
   69  H  4  X    0.000075  -0.000703  -0.000329   0.006218  -0.003757
   70  H  4  Y    0.000011  -0.000290  -0.000142   0.001566  -0.000772
   71  H  4  Z   -0.000053   0.000965  -0.000581  -0.006844   0.009237
   72  H  4  X    0.000098  -0.003022  -0.003966   0.009014  -0.006791
   73  H  4  Y   -0.000027  -0.000952  -0.002589   0.002324  -0.001404
   74  H  4  Z   -0.000138   0.004014   0.000160  -0.008961   0.012490
   75  H  4 XX    0.000047  -0.000015  -0.000684   0.000480   0.001321
   76  H  4 YY    0.000033   0.000675  -0.000132  -0.001336   0.001605
   77  H  4 ZZ   -0.000080  -0.000660   0.000816   0.000855  -0.002926
   78  H  4 XY   -0.000019  -0.000340  -0.000516   0.000645   0.000117
   79  H  4 XZ   -0.000058   0.001373   0.000808  -0.002341   0.002347
   80  H  4 YZ    0.000002   0.000538   0.000416  -0.000576   0.000768
   81  O  5  S    0.969127  -0.000200  -0.010883  -0.001123  -0.000000
   82  O  5  S   -0.005552  -0.000052   0.501155  -0.260462   0.000128
   83  O  5  S    0.052990   0.000623   0.147225  -0.081676   0.000042
   84  O  5  S    0.003243  -0.005286   0.250310  -0.219169   0.000108
   85  O  5  X    0.000710   0.000230   0.035989   0.062715   0.224169
   86  O  5  Y    0.000149   0.000088   0.002917  -0.011562   0.132835
   87  O  5  Z    0.001611   0.000568   0.076122   0.112942  -0.111343
   88  O  5  X   -0.000697  -0.000861   0.044049   0.071538   0.270852
   89  O  5  Y   -0.000145  -0.000320   0.003374  -0.014515   0.160496
   90  O  5  Z   -0.001578  -0.002117   0.092935   0.127256  -0.134526
   91  O  5  X    0.000065  -0.000652   0.012539   0.027856   0.134326
   92  O  5  Y    0.000105  -0.000365  -0.000083  -0.004283   0.079591
   93  O  5  Z    0.000256  -0.001747   0.025216   0.051162  -0.066712
   94  O  5 XX    0.000138  -0.000013   0.000176  -0.001904   0.004358
   95  O  5 YY    0.000055  -0.000035  -0.001933  -0.003085   0.000526
   96  O  5 ZZ   -0.000194   0.000048   0.001757   0.004989  -0.004884
   97  O  5 XY   -0.000001   0.000019   0.000673  -0.000336   0.002002
   98  O  5 XZ   -0.000111   0.000030   0.001710   0.004775   0.004431
   99  O  5 YZ   -0.000180   0.000012  -0.000993   0.000742   0.003112
  100  O  5 XX    0.000121   0.000584  -0.001185  -0.003522   0.013727
  101  O  5 YY    0.000261   0.001016  -0.005648  -0.006799   0.000897
  102  O  5 ZZ   -0.000381  -0.001600   0.006833   0.010321  -0.014623
  103  O  5 XY    0.000026  -0.000261   0.000772  -0.000709   0.005562
  104  O  5 XZ   -0.000389  -0.001198   0.006683   0.010285   0.013081
  105  O  5 YZ   -0.000002  -0.000458  -0.001160   0.000619   0.009647
  106  O  5 XXX   0.000068   0.000363  -0.001394  -0.000187   0.000113
  107  O  5 YYY   0.000014   0.000138  -0.000411   0.000465  -0.001357
  108  O  5 ZZZ  -0.000064  -0.000408   0.001753   0.000017  -0.001581
  109  O  5 XXY   0.000009   0.000068   0.000127   0.000188   0.000723
  110  O  5 XXZ   0.000012   0.000150  -0.000273   0.000466   0.001911
  111  O  5 YYX   0.000024   0.000178  -0.000763  -0.000302  -0.000619
  112  O  5 YYZ   0.000074   0.000398  -0.002079  -0.000490   0.000210
  113  O  5 ZZX  -0.000114  -0.000665   0.002634   0.000554   0.000467
  114  O  5 ZZY  -0.000027  -0.000253   0.000424  -0.000812   0.001097
  115  O  5 XYZ  -0.000004  -0.000087   0.000503  -0.000327   0.000172

                      6          7          8          9         10
                   -0.8597    -0.8176    -0.6939    -0.6156    -0.2544
                     A          A          A          A          A   
    1  C  1  S   -0.003727   0.001081   0.000001   0.001282  -0.002451
    2  C  1  S    0.094138  -0.032083  -0.000011  -0.016764  -0.069213
    3  C  1  S    0.025345  -0.002973  -0.000004  -0.007167  -0.023897
    4  C  1  S    0.053700  -0.089622   0.000028   0.022678  -0.399420
    5  C  1  X   -0.051990  -0.095810  -0.148512   0.090522  -0.139785
    6  C  1  Y    0.147539   0.005575  -0.087157  -0.174179   0.202945
    7  C  1  Z    0.071811  -0.186804   0.073553  -0.023653  -0.041794
    8  C  1  X   -0.063912  -0.104209  -0.162253   0.110417  -0.207859
    9  C  1  Y    0.167799   0.014893  -0.095218  -0.208530   0.283450
   10  C  1  Z    0.071865  -0.192683   0.080377  -0.024187  -0.083856
   11  C  1  X   -0.019424  -0.019081  -0.066506   0.056034  -0.399675
   12  C  1  Y    0.046861   0.010368  -0.039032  -0.109227   0.531933
   13  C  1  Z    0.016927  -0.026210   0.032946  -0.016247  -0.176864
   14  C  1 XX    0.007384  -0.004228  -0.009542   0.000399  -0.001530
   15  C  1 YY   -0.006724  -0.007637  -0.004857   0.009975   0.015551
   16  C  1 ZZ   -0.000661   0.011865   0.014399  -0.010373  -0.014021
   17  C  1 XY    0.003105  -0.002535  -0.008016  -0.014594  -0.011207
   18  C  1 XZ    0.003113   0.013326  -0.014057   0.001584  -0.008079
   19  C  1 YZ   -0.013329  -0.000198  -0.007484  -0.005304   0.003773
   20  C  1 XX    0.010575  -0.001881  -0.014669   0.005834  -0.007622
   21  C  1 YY   -0.008506  -0.008002  -0.003454   0.007776   0.020162
   22  C  1 ZZ   -0.002069   0.009883   0.018123  -0.013609  -0.012540
   23  C  1 XY    0.001373   0.000088  -0.008360  -0.014983  -0.027498
   24  C  1 XZ    0.006153   0.010496  -0.016940   0.003041   0.003851
   25  C  1 YZ   -0.020678  -0.002089  -0.010705  -0.015418   0.003858
   26  C  1 XXX   0.000832   0.001845  -0.000494  -0.001026  -0.001450
   27  C  1 YYY  -0.002437   0.000556  -0.001564  -0.003617  -0.000914
   28  C  1 ZZZ   0.000118  -0.001561  -0.004011   0.002543   0.001072
   29  C  1 XXY  -0.001165  -0.000093   0.000392   0.000047  -0.001452
   30  C  1 XXZ  -0.002659  -0.000045   0.004297  -0.002302  -0.001525
   31  C  1 YYX   0.001201  -0.000461  -0.000886   0.002341  -0.000489
   32  C  1 YYZ   0.002500   0.002139   0.001085  -0.001110   0.000087
   33  C  1 ZZX  -0.002317  -0.002014   0.001549  -0.000964   0.002434
   34  C  1 ZZY   0.004435  -0.000653   0.001706   0.004806   0.002678
   35  C  1 XYZ   0.001630  -0.000364   0.001759   0.003364  -0.000172
   36  H  2  S   -0.100587  -0.032233   0.000021   0.163447   0.135955
   37  H  2  S   -0.149666  -0.048054   0.000035   0.319695   0.387673
   38  H  2  S   -0.025004  -0.017131   0.000009   0.108535   1.008328
   39  H  2  X    0.005327  -0.001120  -0.001302  -0.000138   0.003797
   40  H  2  Y   -0.007990  -0.000018  -0.000764   0.006996  -0.012027
   41  H  2  Z    0.001334  -0.002282   0.000647   0.008004  -0.006572
   42  H  2  X    0.009160  -0.000275  -0.005620  -0.001378  -0.003405
   43  H  2  Y   -0.013523  -0.002311  -0.003292   0.022843  -0.004210
   44  H  2  Z    0.002592  -0.003293   0.002795   0.024252  -0.011834
   45  H  2 XX    0.000958   0.000676  -0.000668  -0.001941   0.000820
   46  H  2 YY   -0.001754   0.000813  -0.000666   0.003923   0.000354
   47  H  2 ZZ    0.000796  -0.001489   0.001334  -0.001982  -0.001174
   48  H  2 XY    0.002655  -0.000815  -0.000883  -0.001690  -0.000455
   49  H  2 XZ   -0.000697  -0.000435  -0.001366  -0.002657  -0.000258
   50  H  2 YZ   -0.000571  -0.001146  -0.000585   0.004217  -0.001387
   51  H  3  S    0.055276  -0.068055  -0.133166  -0.045698  -0.025403
   52  H  3  S    0.076826  -0.091952  -0.209366  -0.085597  -0.014024
   53  H  3  S    0.012650  -0.018332  -0.053580  -0.029206   0.016144
   54  H  3  X   -0.006013   0.004829   0.007962   0.005421  -0.003972
   55  H  3  Y   -0.001172   0.005090   0.006512  -0.001786   0.008613
   56  H  3  Z    0.000347  -0.001706   0.001976  -0.000495  -0.003140
   57  H  3  X   -0.011962   0.005299   0.009961   0.014532  -0.024042
   58  H  3  Y    0.000554   0.007569   0.009362  -0.008348   0.007804
   59  H  3  Z    0.002731  -0.006743   0.006238  -0.001208  -0.013487
   60  H  3 XX    0.002292  -0.000441  -0.001181  -0.002765   0.003616
   61  H  3 YY   -0.001192  -0.000975  -0.000480   0.002626  -0.002251
   62  H  3 ZZ   -0.001100   0.001416   0.001660   0.000139  -0.001364
   63  H  3 XY    0.001161  -0.001563  -0.002408  -0.000562  -0.001652
   64  H  3 XZ   -0.000236   0.001692  -0.000856  -0.000053   0.000786
   65  H  3 YZ   -0.000442   0.000966  -0.000701   0.000404   0.001374
   66  H  4  S    0.055989  -0.068044   0.133152  -0.045748  -0.025442
   67  H  4  S    0.077883  -0.091973   0.209313  -0.085700  -0.014104
   68  H  4  S    0.012782  -0.018343   0.053572  -0.029271   0.016058
   69  H  4  X    0.002662  -0.006067   0.005630  -0.000390  -0.007290
   70  H  4  Y    0.003906  -0.001302   0.001463  -0.005195   0.006664
   71  H  4  Z   -0.004009   0.003692  -0.008707   0.002385  -0.001494
   72  H  4  X    0.004443  -0.011168   0.005587   0.001653  -0.007959
   73  H  4  Y    0.010158  -0.002095  -0.000242  -0.015907   0.017222
   74  H  4  Z   -0.005467   0.001420  -0.013934   0.005180  -0.021463
   75  H  4 XX   -0.000134  -0.001768  -0.000307   0.000810  -0.003376
   76  H  4 YY   -0.000184   0.000325  -0.001319  -0.000067   0.002387
   77  H  4 ZZ    0.000318   0.001443   0.001626  -0.000743   0.000989
   78  H  4 XY    0.001346  -0.000734   0.000133  -0.002002   0.000544
   79  H  4 XZ   -0.001190   0.002041  -0.002548  -0.000047   0.000044
   80  H  4 YZ   -0.001898   0.000314  -0.000670   0.002319  -0.002493
   81  O  5  S   -0.000002   0.000212  -0.000001  -0.000562  -0.005488
   82  O  5  S    0.035995  -0.125875  -0.000002  -0.030335  -0.127345
   83  O  5  S    0.011779  -0.041711  -0.000001  -0.010667  -0.044537
   84  O  5  S    0.034139  -0.146661   0.000007  -0.044054  -0.314782
   85  O  5  X   -0.151654   0.073504   0.234608  -0.158711  -0.014723
   86  O  5  Y    0.244948   0.111879   0.137705   0.246207  -0.023813
   87  O  5  Z   -0.013143   0.281008  -0.116207  -0.028742  -0.057985
   88  O  5  X   -0.182429   0.085087   0.281188  -0.189730  -0.024771
   89  O  5  Y    0.295935   0.134318   0.165050   0.293228  -0.025749
   90  O  5  Z   -0.014282   0.330989  -0.139276  -0.035663  -0.080564
   91  O  5  X   -0.090857   0.040273   0.180847  -0.136313  -0.004503
   92  O  5  Y    0.148547   0.072250   0.106146   0.214464  -0.077818
   93  O  5  Z   -0.005721   0.166949  -0.089567  -0.021139  -0.101336
   94  O  5 XX   -0.001781  -0.003885   0.001003   0.000132  -0.002180
   95  O  5 YY    0.001537  -0.005050  -0.000021   0.000778   0.001935
   96  O  5 ZZ    0.000244   0.008935  -0.000982  -0.000910   0.000245
   97  O  5 XY    0.002772   0.001383   0.000320  -0.000798  -0.000653
   98  O  5 XZ   -0.004096   0.006178   0.000857  -0.000239  -0.001109
   99  O  5 YZ    0.005795   0.003862   0.000682  -0.000312   0.004112
  100  O  5 XX   -0.005783  -0.010459   0.004670   0.000165  -0.004008
  101  O  5 YY    0.003704  -0.013156  -0.001536   0.003027   0.015517
  102  O  5 ZZ    0.002079   0.023615  -0.003133  -0.003192  -0.011509
  103  O  5 XY    0.009546   0.004370   0.000070  -0.002965  -0.007696
  104  O  5 XZ   -0.012206   0.015454   0.002322  -0.000952  -0.010685
  105  O  5 YZ    0.018403   0.011165   0.002897  -0.000575   0.010235
  106  O  5 XXX  -0.000058  -0.000919   0.000778  -0.001003   0.000267
  107  O  5 YYY  -0.001578  -0.000463  -0.000061   0.001306  -0.001303
  108  O  5 ZZZ   0.001046   0.001555   0.002018  -0.000523  -0.000777
  109  O  5 XXY   0.000355   0.000511   0.000300   0.000076  -0.001294
  110  O  5 XXZ  -0.000889  -0.000094  -0.001722   0.001535  -0.001421
  111  O  5 YYX   0.001060  -0.000448   0.000010   0.000405   0.001717
  112  O  5 YYZ  -0.000514  -0.001992  -0.000986  -0.000834   0.002463
  113  O  5 ZZX  -0.000982   0.001682  -0.001054   0.000941  -0.002076
  114  O  5 ZZY   0.001761   0.000110  -0.000218  -0.001828   0.003042
  115  O  5 XYZ   0.001759   0.000841  -0.001545  -0.001527   0.000175

                     11         12         13         14         15
                   -0.1830    -0.1247    -0.1185    -0.0305     0.0229
                     A          A          A          A          A   
    1  C  1  S    0.013204  -0.000005  -0.003057   0.013531   0.000017
    2  C  1  S    0.329418   0.000081  -0.139589   0.004339   0.000047
    3  C  1  S    0.102846   0.000013  -0.024317   0.010610   0.000006
    4  C  1  S    1.682741   0.000635  -1.229766  -0.087579   0.000780
    5  C  1  X    0.001081  -0.204482  -0.002605   0.034043  -0.029053
    6  C  1  Y    0.072411  -0.120078   0.088762  -0.101267  -0.017097
    7  C  1  Z    0.088100   0.101171   0.100534  -0.051245   0.014418
    8  C  1  X    0.004672  -0.270954   0.057403   0.083998   0.296234
    9  C  1  Y    0.101096  -0.159165   0.184912  -0.057204   0.173915
   10  C  1  Z    0.129181   0.133851   0.335900   0.101580  -0.146727
   11  C  1  X    0.031930  -0.819710   0.430940  -0.277418   1.794039
   12  C  1  Y    0.291859  -0.481384   0.525925   1.026906   1.053037
   13  C  1  Z    0.410148   0.404307   1.495567   0.655679  -0.888889
   14  C  1 XX   -0.005138   0.001736  -0.012865  -0.015936  -0.001026
   15  C  1 YY    0.010410   0.005052  -0.008868   0.017326  -0.009249
   16  C  1 ZZ   -0.005272  -0.006788   0.021733  -0.001389   0.010275
   17  C  1 XY   -0.013200   0.005556  -0.006183  -0.018748  -0.009448
   18  C  1 XZ    0.001407   0.007376   0.021116   0.001507  -0.011683
   19  C  1 YZ    0.004609   0.002161   0.009649   0.021542  -0.002522
   20  C  1 XX    0.005538   0.018535   0.059661   0.118702   0.215910
   21  C  1 YY    0.015246   0.036584   0.029775  -0.079569   0.046832
   22  C  1 ZZ   -0.020785  -0.055119  -0.089437  -0.039133  -0.262742
   23  C  1 XY   -0.012931   0.042282   0.012881   0.153718   0.119390
   24  C  1 XZ   -0.008184   0.059063  -0.068179  -0.086760   0.244681
   25  C  1 YZ   -0.008640   0.019965  -0.063882  -0.118440   0.156842
   26  C  1 XXX  -0.000932  -0.001169  -0.004344   0.013461  -0.014341
   27  C  1 YYY  -0.001484  -0.003269  -0.003841   0.006142  -0.019892
   28  C  1 ZZZ   0.001328  -0.000685   0.006601  -0.005766  -0.003533
   29  C  1 XXY  -0.000515   0.004554   0.001438   0.004610   0.034642
   30  C  1 XXZ  -0.001327  -0.000947  -0.001546   0.001996  -0.014400
   31  C  1 YYX   0.000399   0.000354   0.000889  -0.011524   0.007370
   32  C  1 YYZ  -0.000454   0.001866  -0.007311   0.005741   0.019140
   33  C  1 ZZX   0.000851   0.001215   0.004938  -0.006535   0.011870
   34  C  1 ZZY   0.002506  -0.000168   0.003716  -0.012851  -0.007954
   35  C  1 XYZ   0.001021  -0.001189   0.004491   0.000419  -0.005510
   36  H  2  S    0.027807  -0.000015   0.013381   0.054612  -0.000047
   37  H  2  S    0.117399  -0.000129   0.106229   1.054426   0.000025
   38  H  2  S   -0.095862  -0.001268   1.123561  -0.615949   0.000422
   39  H  2  X   -0.001905  -0.004604   0.007057  -0.010987   0.006867
   40  H  2  Y    0.006394  -0.002683  -0.010781   0.021516   0.004025
   41  H  2  Z    0.003723   0.002275   0.001499   0.003299  -0.003402
   42  H  2  X   -0.004978  -0.005317  -0.007315  -0.073536   0.111861
   43  H  2  Y    0.000920  -0.003115  -0.009611   0.146992   0.065742
   44  H  2  Z   -0.008956   0.002662  -0.026185   0.025509  -0.055357
   45  H  2 XX   -0.001080   0.001183   0.000558  -0.004482  -0.006811
   46  H  2 YY    0.001325  -0.001233  -0.001111   0.010171   0.002574
   47  H  2 ZZ   -0.000245   0.000050   0.000553  -0.005689   0.004237
   48  H  2 XY   -0.001911  -0.000811  -0.002735  -0.011833   0.000217
   49  H  2 XZ    0.000533  -0.000401   0.003871   0.000174  -0.002997
   50  H  2 YZ    0.001074   0.000570  -0.003630   0.004460  -0.004142
   51  H  3  S   -0.064898   0.042350  -0.021785  -0.040950  -0.060036
   52  H  3  S   -0.220872   0.054626  -0.221821  -0.569726  -1.333870
   53  H  3  S   -1.170298   1.642936  -0.277334   0.301656  -0.704541
   54  H  3  X   -0.015739   0.015806   0.002184   0.005159   0.016775
   55  H  3  Y   -0.008292   0.013382   0.002300   0.017090   0.013872
   56  H  3  Z    0.002182   0.008162   0.013928   0.004738  -0.001468
   57  H  3  X   -0.005387   0.019736   0.022694   0.045870   0.242010
   58  H  3  Y    0.012011   0.020540   0.018906   0.053422   0.112634
   59  H  3  Z    0.011697  -0.005425   0.069030   0.077259  -0.071983
   60  H  3 XX    0.002245  -0.000880  -0.000802   0.001105  -0.011657
   61  H  3 YY   -0.000525  -0.000204  -0.001988  -0.000100  -0.004727
   62  H  3 ZZ   -0.001720   0.001084   0.002789  -0.001005   0.016384
   63  H  3 XY    0.000249  -0.001441  -0.002454  -0.007643  -0.018144
   64  H  3 XZ   -0.001304  -0.000513  -0.005724  -0.006631  -0.000717
   65  H  3 YZ   -0.001035  -0.000587  -0.004683  -0.001764   0.002756
   66  H  4  S   -0.064932  -0.042300  -0.021868  -0.040974   0.059980
   67  H  4  S   -0.220724  -0.054058  -0.221960  -0.569671   1.333226
   68  H  4  S   -1.170516  -1.641716  -0.280709   0.302223   0.704339
   69  H  4  X    0.011547   0.008858   0.006433  -0.011000   0.015471
   70  H  4  Y    0.007717   0.001087   0.004781   0.007607   0.005051
   71  H  4  Z   -0.011339  -0.020405   0.011787   0.012743  -0.014506
   72  H  4  X   -0.000131   0.023618   0.023257  -0.003079   0.190487
   73  H  4  Y    0.015070   0.004890   0.019228   0.024652   0.141149
   74  H  4  Z    0.009045  -0.016228   0.068794   0.101497  -0.142144
   75  H  4 XX    0.000466  -0.000395   0.004464   0.000361   0.004975
   76  H  4 YY    0.000878  -0.000680   0.002074   0.008440  -0.008787
   77  H  4 ZZ   -0.001343   0.001074  -0.006538  -0.008801   0.003812
   78  H  4 XY    0.001032   0.000145   0.003326   0.000510   0.002570
   79  H  4 XZ   -0.001238  -0.001632   0.003637   0.002663  -0.020915
   80  H  4 YZ   -0.001976  -0.000454  -0.000284  -0.000591  -0.009979
   81  O  5  S    0.001716   0.000009  -0.011725   0.001156   0.000000
   82  O  5  S   -0.009480  -0.000138   0.146912   0.001402  -0.000050
   83  O  5  S   -0.004618  -0.000054   0.056939  -0.002426  -0.000014
   84  O  5  S    0.008166  -0.001223   1.398301   0.432343  -0.000550
   85  O  5  X   -0.014105   0.045565   0.037085  -0.005729  -0.116848
   86  O  5  Y   -0.025474   0.026724   0.028599  -0.020480  -0.068558
   87  O  5  Z   -0.058697  -0.022686   0.108606  -0.035840   0.057903
   88  O  5  X   -0.014883   0.043090   0.081650   0.019320  -0.140236
   89  O  5  Y   -0.026734   0.025290   0.032540  -0.033987  -0.082268
   90  O  5  Z   -0.061775  -0.021562   0.203271  -0.001281   0.069474
   91  O  5  X   -0.006720   0.177234   0.192868   0.061523  -0.089984
   92  O  5  Y   -0.071681   0.104020   0.086277  -0.116607  -0.052845
   93  O  5  Z   -0.098505  -0.088271   0.491054  -0.013717   0.044276
   94  O  5 XX   -0.001251  -0.004285   0.000957   0.000170  -0.000710
   95  O  5 YY   -0.000086  -0.000374   0.003532  -0.000256  -0.000075
   96  O  5 ZZ    0.001337   0.004659  -0.004489   0.000086   0.000785
   97  O  5 XY   -0.000137  -0.001815  -0.000725  -0.001248  -0.000313
   98  O  5 XZ    0.000628  -0.004198  -0.004017   0.001483  -0.000710
   99  O  5 YZ    0.001780  -0.003004   0.000201  -0.001366  -0.000497
  100  O  5 XX   -0.007914  -0.010039  -0.015601  -0.002446   0.036994
  101  O  5 YY    0.001179   0.002538  -0.008377   0.003491  -0.014957
  102  O  5 ZZ    0.006735   0.007501   0.023978  -0.001044  -0.022037
  103  O  5 XY   -0.008303  -0.000900  -0.007580  -0.029973  -0.002218
  104  O  5 XZ    0.009041  -0.005909   0.022681   0.025497   0.015064
  105  O  5 YZ    0.006743  -0.006391   0.013122  -0.016617   0.022337
  106  O  5 XXX  -0.000916   0.000211  -0.001464  -0.001100   0.000535
  107  O  5 YYY  -0.000336   0.000841  -0.000673   0.001916   0.000162
  108  O  5 ZZZ   0.000350   0.002879   0.001433  -0.001263  -0.001044
  109  O  5 XXY  -0.000998   0.000181  -0.000736  -0.001646  -0.001165
  110  O  5 XXZ  -0.000743  -0.003288  -0.000965   0.000630   0.001931
  111  O  5 YYX  -0.000144   0.000714  -0.000678  -0.001174  -0.000643
  112  O  5 YYZ   0.000273  -0.000575  -0.000958   0.001065  -0.000530
  113  O  5 ZZX   0.001372  -0.000997   0.002642   0.002650  -0.000075
  114  O  5 ZZY   0.001449  -0.001309   0.001639  -0.000925   0.000948
  115  O  5 XYZ  -0.000454  -0.001388   0.000128  -0.003172   0.000602

                     16         17         18         19         20
                    0.0724     0.1103     0.1544     0.1686     0.1993
                     A          A          A          A          A   
    1  C  1  S    0.004382   0.014106   0.040803   0.000016  -0.000006
    2  C  1  S    0.034604   0.337410   0.190112   0.000089   0.000146
    3  C  1  S   -0.004346   0.126551   0.149994   0.000083   0.000092
    4  C  1  S    0.507168  -0.313128  -2.271647  -0.001676  -0.002672
    5  C  1  X    0.162006  -0.100413   0.003095  -0.205931   0.115219
    6  C  1  Y   -0.134606   0.024980  -0.207875  -0.120874   0.067649
    7  C  1  Z    0.167640  -0.173051  -0.240089   0.102051  -0.056965
    8  C  1  X    0.079263  -0.243969  -0.017004   0.205668   0.184728
    9  C  1  Y   -0.128609   0.089320  -0.148396   0.120769   0.108440
   10  C  1  Z    0.008088  -0.386545  -0.210027  -0.101844  -0.091579
   11  C  1  X   -0.797207   0.448380  -0.362317   2.352768  -0.403362
   12  C  1  Y    0.851469  -0.506860   1.959928   1.381039  -0.236942
   13  C  1  Z   -0.598898   0.305556   1.589866  -1.165560   0.199033
   14  C  1 XX   -0.006946  -0.000368   0.002134   0.002013  -0.022007
   15  C  1 YY   -0.012240   0.005929   0.002527   0.020611   0.007138
   16  C  1 ZZ    0.019186  -0.005561  -0.004661  -0.022624   0.014870
   17  C  1 XY   -0.002269  -0.016501   0.005424   0.020960  -0.000452
   18  C  1 XZ    0.019669   0.008722  -0.009108   0.025795  -0.011031
   19  C  1 YZ    0.001306  -0.008091   0.002368   0.005424  -0.013651
   20  C  1 XX   -0.033276   0.033971   0.211468   0.188228  -0.232639
   21  C  1 YY   -0.329488   0.144734  -0.112117   0.258368   0.189760
   22  C  1 ZZ    0.362764  -0.178704  -0.099351  -0.446596   0.042879
   23  C  1 XY    0.144759  -0.146167   0.236259   0.318082   0.107638
   24  C  1 XZ    0.281377  -0.049623  -0.155184   0.466893   0.016820
   25  C  1 YZ   -0.048063  -0.071028  -0.220607   0.179472  -0.121664
   26  C  1 XXX   0.030221  -0.017191   0.001499  -0.009178   0.003826
   27  C  1 YYY   0.021487  -0.000668   0.009678  -0.024827   0.001321
   28  C  1 ZZZ  -0.035495   0.012490   0.003062  -0.000301  -0.004865
   29  C  1 XXY  -0.004068  -0.006756  -0.014868   0.037109  -0.007350
   30  C  1 XXZ   0.007852  -0.003963  -0.013676  -0.013678   0.010554
   31  C  1 YYX  -0.011146  -0.008828  -0.043597   0.004245  -0.003907
   32  C  1 YYZ   0.039770  -0.012794   0.009568   0.014082  -0.004027
   33  C  1 ZZX  -0.029400   0.031892   0.041586   0.008068  -0.001226
   34  C  1 ZZY  -0.024760   0.007651   0.001883  -0.003801   0.005578
   35  C  1 XYZ  -0.020399  -0.004691  -0.013351  -0.012021   0.002755
   36  H  2  S   -0.139312  -0.070271  -0.106150  -0.000040  -0.000016
   37  H  2  S   -0.148848  -0.527910   0.399075   0.000315   0.000109
   38  H  2  S    1.448948  -0.036189   2.632708   0.000621  -0.000158
   39  H  2  X    0.005420   0.002868   0.000691   0.015954   0.015447
   40  H  2  Y   -0.010439  -0.003332  -0.003425   0.009359   0.009057
   41  H  2  Z   -0.001400   0.001859  -0.002677  -0.007903  -0.007655
   42  H  2  X   -0.139168  -0.007879  -0.192985  -0.212097  -0.238825
   43  H  2  Y    0.335539   0.084227   0.415636  -0.124180  -0.140034
   44  H  2  Z    0.116334   0.083686   0.102710   0.105112   0.118416
   45  H  2 XX   -0.010445   0.000088  -0.008697  -0.001031  -0.002753
   46  H  2 YY    0.014726   0.002692   0.029110  -0.005782   0.000741
   47  H  2 ZZ   -0.004281  -0.002780  -0.020413   0.006812   0.002013
   48  H  2 XY   -0.014147  -0.006647  -0.023905  -0.006060  -0.000203
   49  H  2 XZ   -0.001418   0.003071  -0.010475  -0.007662  -0.001559
   50  H  2 YZ    0.014851  -0.003451   0.013890  -0.001824  -0.001731
   51  H  3  S   -0.055798  -0.102469   0.058819   0.114636  -0.060371
   52  H  3  S   -0.304502  -0.441081   0.427364  -0.631374  -0.371454
   53  H  3  S   -0.050429   0.629772  -0.925903  -2.630395   0.839714
   54  H  3  X   -0.000817   0.007057  -0.015523   0.008001   0.013610
   55  H  3  Y    0.006864   0.000905  -0.001435  -0.004543  -0.010279
   56  H  3  Z   -0.002321   0.002048   0.005743  -0.002202   0.007944
   57  H  3  X   -0.017973  -0.145975   0.059985   0.366086  -0.247241
   58  H  3  Y   -0.098668  -0.131635  -0.003212   0.464382   0.188583
   59  H  3  Z    0.046274  -0.039794  -0.066174   0.038917  -0.193105
   60  H  3 XX    0.001416   0.004019   0.005270  -0.014339  -0.000163
   61  H  3 YY    0.003821   0.000405   0.002897  -0.009690  -0.003463
   62  H  3 ZZ   -0.005237  -0.004424  -0.008167   0.024029   0.003627
   63  H  3 XY   -0.000020   0.011376   0.005452  -0.029123   0.005081
   64  H  3 XZ   -0.001977   0.001391  -0.000750  -0.005350   0.008084
   65  H  3 YZ    0.000807  -0.001427   0.003786  -0.005951   0.001741
   66  H  4  S   -0.055829  -0.102504   0.058867  -0.114679   0.060224
   67  H  4  S   -0.305545  -0.441567   0.427479   0.631806   0.372207
   68  H  4  S   -0.051205   0.629878  -0.926522   2.630900  -0.837418
   69  H  4  X   -0.006309  -0.001214   0.008640   0.000084  -0.009022
   70  H  4  Y    0.003637  -0.003956   0.012747   0.009291   0.012972
   71  H  4  Z    0.000406   0.006148  -0.006232  -0.001806  -0.010219
   72  H  4  X    0.106090   0.109964  -0.054334   0.413253   0.196186
   73  H  4  Y   -0.025841   0.018681  -0.070459  -0.007200  -0.218753
   74  H  4  Z   -0.015161  -0.166652  -0.009297  -0.425080   0.217963
   75  H  4 XX    0.000042   0.003274  -0.002246   0.000285   0.002449
   76  H  4 YY    0.002532  -0.007681   0.000481  -0.013766   0.007531
   77  H  4 ZZ   -0.002574   0.004406   0.001765   0.013481  -0.009980
   78  H  4 XY   -0.001760   0.003172   0.000513   0.001298  -0.000271
   79  H  4 XZ   -0.004672  -0.008681  -0.010184  -0.034368  -0.001342
   80  H  4 YZ   -0.000374  -0.003530  -0.001824  -0.008275   0.000618
   81  O  5  S    0.011232  -0.015378  -0.004038  -0.000005  -0.000014
   82  O  5  S   -0.016499  -0.151609  -0.025023   0.000011  -0.000018
   83  O  5  S    0.002737  -0.053308  -0.015996   0.000005  -0.000001
   84  O  5  S   -1.379447   0.135500   1.065903   0.000192   0.000050
   85  O  5  X    0.078975  -0.026015  -0.062755  -0.032724  -0.082616
   86  O  5  Y   -0.010179  -0.079758   0.015663  -0.019182  -0.048515
   87  O  5  Z    0.147244  -0.147098  -0.108089   0.016216   0.040929
   88  O  5  X    0.076842   0.015762  -0.045736  -0.054609  -0.169355
   89  O  5  Y   -0.045730  -0.128272   0.039220  -0.031993  -0.099435
   90  O  5  Z    0.100770  -0.120290  -0.045777   0.027054   0.083874
   91  O  5  X   -0.263973  -0.196654   0.115647   0.095541   0.217758
   92  O  5  Y   -0.047203   0.097106  -0.089648   0.055903   0.127805
   93  O  5  Z   -0.588865  -0.282006   0.127296  -0.047154  -0.107751
   94  O  5 XX   -0.000574  -0.005003  -0.002992  -0.007352  -0.000900
   95  O  5 YY   -0.001025  -0.007112  -0.003528   0.000548   0.001729
   96  O  5 ZZ    0.001599   0.012115   0.006520   0.006804  -0.000828
   97  O  5 XY   -0.000962   0.001587  -0.001588  -0.001952   0.001395
   98  O  5 XZ    0.002397   0.008905   0.006886  -0.005831   0.001222
   99  O  5 YZ   -0.000484   0.004442   0.001204  -0.004919  -0.000274
  100  O  5 XX    0.041222  -0.018322  -0.022411  -0.023474  -0.015276
  101  O  5 YY    0.052330  -0.035488  -0.054877   0.012656   0.049786
  102  O  5 ZZ   -0.093551   0.053810   0.077288   0.010818  -0.034510
  103  O  5 XY    0.000506   0.031487   0.004850   0.004522   0.043847
  104  O  5 XZ   -0.078774   0.019455   0.070926  -0.005878   0.044601
  105  O  5 YZ   -0.030333   0.029679   0.003574  -0.013575  -0.000654
  106  O  5 XXX   0.006284  -0.000965  -0.003456  -0.000449  -0.002445
  107  O  5 YYY   0.002736  -0.001838  -0.000024   0.001368  -0.000459
  108  O  5 ZZZ  -0.005688   0.003329   0.005336   0.002472  -0.002971
  109  O  5 XXY   0.001261   0.000212   0.000680  -0.000018   0.001387
  110  O  5 XXZ   0.001936  -0.002011  -0.000586  -0.003400   0.001034
  111  O  5 YYX  -0.000186  -0.002101  -0.005107   0.001099   0.000840
  112  O  5 YYZ   0.005695  -0.002456  -0.006574   0.000083   0.002953
  113  O  5 ZZX  -0.008245   0.003396   0.009744  -0.000496   0.002440
  114  O  5 ZZY  -0.004932   0.002254  -0.000647  -0.001817  -0.000771
  115  O  5 XYZ  -0.001232   0.002373   0.001017  -0.000621   0.002325

                     21         22         23         24         25
                    0.2141     0.2475     0.3519     0.3941     0.4527
                     A          A          A          A          A   
    1  C  1  S    0.015216  -0.082424  -0.043731  -0.000017  -0.004897
    2  C  1  S   -0.248353  -0.280959  -0.150207  -0.000059   0.056523
    3  C  1  S   -0.217022  -0.149753  -0.148797  -0.000040  -0.021210
    4  C  1  S    7.339262   1.052082   3.790394   0.000787   1.148681
    5  C  1  X   -0.064070   0.027479   0.007812  -0.097382  -0.021396
    6  C  1  Y    0.000282  -0.023416  -0.051580  -0.057142  -0.012404
    7  C  1  Z   -0.129016   0.027745  -0.045477   0.048225  -0.057919
    8  C  1  X   -0.174657   0.468096   0.170687  -0.339735   0.172701
    9  C  1  Y    0.139595  -0.051477   0.039271  -0.199268   0.043084
   10  C  1  Z   -0.188632   0.883732   0.390083   0.168398   0.398943
   11  C  1  X    0.459972   0.108912   0.152925   1.669444   0.545277
   12  C  1  Y   -0.185160   0.350052   0.110854   0.979625  -0.565286
   13  C  1  Z    0.708535   0.634438   0.441880  -0.826855   0.430665
   14  C  1 XX    0.001755   0.024900   0.007211  -0.001385   0.002894
   15  C  1 YY   -0.019892   0.007026   0.005176   0.002837   0.008142
   16  C  1 ZZ    0.018137  -0.031926  -0.012387  -0.001453  -0.011036
   17  C  1 XY    0.022283   0.017698   0.008241   0.002324   0.006550
   18  C  1 XZ    0.002732  -0.033702  -0.016696   0.002075  -0.017431
   19  C  1 YZ    0.001459  -0.020802  -0.001678  -0.000393   0.005627
   20  C  1 XX    0.176198   0.125760   0.254240  -0.421487   0.022443
   21  C  1 YY   -0.251442   0.137795  -0.054429  -0.045311   0.093658
   22  C  1 ZZ    0.075244  -0.263555  -0.199811   0.466798  -0.116101
   23  C  1 XY    0.476748   0.120558   0.248531  -0.187355   0.547356
   24  C  1 XZ   -0.202603  -0.328217  -0.251730  -0.423610  -0.655297
   25  C  1 YZ   -0.073521  -0.016689  -0.241401  -0.297400   0.436964
   26  C  1 XXX   0.028337  -0.002870   0.008855   0.004182  -0.016294
   27  C  1 YYY   0.001954  -0.008085  -0.026959   0.003023   0.000879
   28  C  1 ZZZ  -0.020992   0.013575   0.013772  -0.019515   0.015521
   29  C  1 XXY   0.041193   0.037231   0.029631  -0.016489   0.022545
   30  C  1 XXZ   0.036279   0.026214   0.004160   0.029799   0.022552
   31  C  1 YYX   0.052593   0.037713   0.042421  -0.007997   0.018821
   32  C  1 YYZ  -0.008116  -0.044428  -0.022637  -0.003617  -0.043375
   33  C  1 ZZX  -0.090611  -0.033862  -0.054302   0.002387   0.003040
   34  C  1 ZZY  -0.043815  -0.026384   0.006538   0.012433  -0.023723
   35  C  1 XYZ   0.022108   0.028913   0.044033   0.013013   0.010347
   36  H  2  S    0.022297  -0.026589   0.006769   0.000003  -0.009018
   37  H  2  S   -0.176440  -0.622114  -0.827763  -0.000053  -0.523169
   38  H  2  S   -0.879992   0.475537  -0.637750  -0.000178   0.092461
   39  H  2  X    0.004108  -0.003153  -0.001755   0.000619   0.016196
   40  H  2  Y    0.000039  -0.006588   0.007346   0.000371  -0.005065
   41  H  2  Z    0.008311  -0.014171   0.005139  -0.000307   0.026682
   42  H  2  X    0.003067   0.200421   0.035679  -0.029953  -0.297050
   43  H  2  Y   -0.068622  -0.173188  -0.190311  -0.017580   0.021921
   44  H  2  Z   -0.074738   0.199587  -0.153135   0.014800  -0.573439
   45  H  2 XX    0.000975   0.005710   0.007768   0.004981   0.001293
   46  H  2 YY   -0.012184  -0.017123  -0.010325  -0.004797  -0.005982
   47  H  2 ZZ    0.011208   0.011413   0.002557  -0.000183   0.004690
   48  H  2 XY   -0.003324   0.016386   0.022979  -0.003035   0.006350
   49  H  2 XZ    0.018166   0.003714  -0.011815  -0.001218   0.000929
   50  H  2 YZ   -0.011762  -0.007338  -0.001252   0.002459  -0.001015
   51  H  3  S    0.079925   0.001855  -0.017415  -0.000333  -0.007735
   52  H  3  S   -1.184573  -0.777344  -1.190000   0.314583  -0.897486
   53  H  3  S   -1.921663  -0.577443  -0.676886  -1.241971  -0.183878
   54  H  3  X    0.011196   0.009810   0.019035  -0.004343   0.015949
   55  H  3  Y    0.006163   0.011029   0.010690  -0.006898   0.009672
   56  H  3  Z    0.000857   0.010791  -0.003390  -0.002586  -0.010472
   57  H  3  X    0.534159   0.342969   0.267599  -0.091895   0.124483
   58  H  3  Y    0.399868   0.182791   0.242569   0.025028   0.091864
   59  H  3  Z    0.127350  -0.142565   0.118531  -0.050470   0.240300
   60  H  3 XX   -0.019695  -0.023357  -0.015197   0.004124  -0.014704
   61  H  3 YY   -0.000667   0.002144  -0.006103   0.006215  -0.002335
   62  H  3 ZZ    0.020362   0.021213   0.021300  -0.010339   0.017039
   63  H  3 XY   -0.042813  -0.038635  -0.030395   0.002439  -0.009331
   64  H  3 XZ   -0.008138   0.004318  -0.010835  -0.008128  -0.009197
   65  H  3 YZ   -0.011212  -0.003503  -0.004654  -0.004842  -0.004849
   66  H  4  S    0.079902   0.001858  -0.017416   0.000328  -0.007735
   67  H  4  S   -1.183427  -0.776911  -1.189298  -0.315006  -0.896687
   68  H  4  S   -1.921114  -0.577368  -0.677687   1.241670  -0.183705
   69  H  4  X   -0.006907  -0.003946  -0.014914  -0.004609  -0.017782
   70  H  4  Y   -0.004444   0.002957  -0.009229   0.001650  -0.010128
   71  H  4  Z    0.009803   0.017596   0.013419   0.007021   0.006226
   72  H  4  X   -0.353195  -0.312143  -0.174104   0.026137   0.050031
   73  H  4  Y   -0.121163  -0.201664  -0.016676  -0.063669   0.048386
   74  H  4  Z    0.566823   0.181918   0.337185   0.083184   0.277170
   75  H  4 XX    0.003304  -0.003304   0.000631  -0.006577   0.007711
   76  H  4 YY    0.022566   0.015516   0.018018  -0.003144   0.002830
   77  H  4 ZZ   -0.025870  -0.012212  -0.018649   0.009721  -0.010541
   78  H  4 XY   -0.012133  -0.018682  -0.001282  -0.000265   0.003369
   79  H  4 XZ    0.039149   0.037529   0.031192   0.009556   0.016529
   80  H  4 YZ    0.009067   0.012829   0.010900   0.003775   0.011479
   81  O  5  S    0.022062   0.013050  -0.032070  -0.000012  -0.055352
   82  O  5  S   -0.050456   0.148113  -0.120801  -0.000039  -0.226687
   83  O  5  S   -0.012284   0.032179  -0.035448  -0.000011  -0.073640
   84  O  5  S   -1.375530   1.064242   0.104507   0.000009   0.661036
   85  O  5  X    0.063053   0.011161  -0.120349   0.134994  -0.045073
   86  O  5  Y   -0.055924  -0.117456   0.173001   0.079252  -0.004576
   87  O  5  Z    0.061133  -0.116558  -0.037949  -0.066885  -0.096475
   88  O  5  X    0.116457   0.023944  -0.294498   0.379690  -0.003756
   89  O  5  Y   -0.140869  -0.230005   0.475334   0.222890  -0.067105
   90  O  5  Z    0.068428  -0.224040  -0.031177  -0.188109  -0.087189
   91  O  5  X   -0.614184   0.476296   0.778013  -1.442750  -0.297155
   92  O  5  Y    0.142566   0.453839  -1.159198  -0.846961   0.974045
   93  O  5  Z   -1.071519   1.499038   0.196444   0.714757   0.554096
   94  O  5 XX   -0.001425   0.010346  -0.000881   0.014022   0.010275
   95  O  5 YY   -0.008603   0.013065   0.004987   0.002292  -0.000146
   96  O  5 ZZ    0.010028  -0.023411  -0.004107  -0.016313  -0.010129
   97  O  5 XY    0.002348   0.001138   0.008267   0.007005  -0.009759
   98  O  5 XZ    0.008923  -0.020661  -0.013999   0.015000   0.006474
   99  O  5 YZ   -0.001483  -0.006896   0.010755   0.010047  -0.023386
  100  O  5 XX    0.023064  -0.027985   0.007615  -0.018260  -0.005873
  101  O  5 YY    0.068225  -0.046790  -0.010745   0.008880  -0.019909
  102  O  5 ZZ   -0.091290   0.074775   0.003130   0.009380   0.025782
  103  O  5 XY   -0.018912   0.017971   0.009952   0.002546   0.002529
  104  O  5 XZ   -0.074098   0.049756   0.001423  -0.005725   0.024316
  105  O  5 YZ   -0.006785   0.027293  -0.011113  -0.010755  -0.001667
  106  O  5 XXX   0.006230  -0.003677  -0.000800   0.001254  -0.000547
  107  O  5 YYY   0.002266  -0.002579   0.003410   0.002737  -0.006175
  108  O  5 ZZZ  -0.007973   0.005029  -0.000401   0.008748   0.006376
  109  O  5 XXY  -0.000740  -0.000156   0.001057  -0.000232  -0.000095
  110  O  5 XXZ   0.001311  -0.002027   0.003077  -0.009284  -0.006162
  111  O  5 YYX   0.002761  -0.000988  -0.002381   0.001755  -0.002079
  112  O  5 YYZ   0.009386  -0.004720  -0.002539  -0.002452  -0.002392
  113  O  5 ZZX  -0.011120   0.005921   0.003455  -0.003437   0.002813
  114  O  5 ZZY  -0.002300   0.003616  -0.005632  -0.003441   0.008380
  115  O  5 XYZ  -0.002719   0.002382  -0.002543  -0.004289   0.006828

                     26         27         28         29         30
                    0.5254     0.5479     0.6206     0.6608     0.7357
                     A          A          A          A          A   
    1  C  1  S    0.000006   0.002753   0.000022   0.065196   0.005854
    2  C  1  S    0.000002  -0.023244   0.000026   0.207816  -0.093722
    3  C  1  S    0.000001  -0.078550   0.000011   0.124735   0.014527
    4  C  1  S   -0.000235   1.601117  -0.000127  -1.147944  -1.163808
    5  C  1  X   -0.000870   0.033624   0.072999  -0.024279   0.109206
    6  C  1  Y   -0.000495  -0.011135   0.042829   0.071425   0.034112
    7  C  1  Z    0.000472   0.054767  -0.036047   0.035630   0.260960
    8  C  1  X    0.017706   0.016888   0.651186  -0.089854   0.180555
    9  C  1  Y    0.010381  -0.125901   0.382167   0.512924   0.280707
   10  C  1  Z   -0.008949  -0.114829  -0.322537   0.426750   0.697392
   11  C  1  X   -0.302491   0.186356   2.442792  -0.201053   0.693906
   12  C  1  Y   -0.177016  -0.443393   1.433720   1.376702   0.419617
   13  C  1  Z    0.149915  -0.147662  -1.209413   1.225637   1.900173
   14  C  1 XX    0.002749  -0.002616   0.007955   0.006651  -0.002170
   15  C  1 YY   -0.002742   0.000534   0.001100   0.002175  -0.013425
   16  C  1 ZZ   -0.000007   0.002082  -0.009055  -0.008826   0.015596
   17  C  1 XY   -0.001763  -0.010488   0.003786   0.001790   0.017709
   18  C  1 XZ   -0.000764   0.010333   0.008304  -0.006549   0.000251
   19  C  1 YZ    0.001330  -0.003521   0.005663  -0.007571   0.008205
   20  C  1 XX   -0.000884  -0.167125  -0.074126   0.782677   0.270423
   21  C  1 YY   -0.041669  -0.188275   0.641555  -0.988326   0.496163
   22  C  1 ZZ    0.042553   0.355400  -0.567429   0.205649  -0.766586
   23  C  1 XY   -0.041137   0.541118   0.606600   1.176257  -0.122988
   24  C  1 XZ   -0.049056  -0.238589   0.682544  -0.150140  -0.585397
   25  C  1 YZ   -0.008689   0.547769   0.075081  -0.952283  -0.197297
   26  C  1 XXX  -0.017100   0.030632  -0.010454   0.040609  -0.023957
   27  C  1 YYY   0.021394   0.014668  -0.017531   0.019889  -0.012663
   28  C  1 ZZZ  -0.023736  -0.016223   0.013261  -0.018557   0.024135
   29  C  1 XXY  -0.020244   0.022180   0.036188   0.001306  -0.004778
   30  C  1 XXZ   0.014993   0.018151  -0.031104  -0.004954  -0.009757
   31  C  1 YYX   0.007072  -0.006019   0.009462  -0.050854  -0.000503
   32  C  1 YYZ   0.016852   0.003614   0.013312   0.029851  -0.022623
   33  C  1 ZZX   0.015869  -0.035078   0.004564  -0.003628   0.032645
   34  C  1 ZZY  -0.008460  -0.041859  -0.012667  -0.027990   0.021767
   35  C  1 XYZ   0.032813   0.005180  -0.015907  -0.006591   0.007338
   36  H  2  S    0.000011   0.014942  -0.000006  -0.051673  -0.007139
   37  H  2  S    0.000398  -0.210899   0.000563   2.369783   0.112178
   38  H  2  S   -0.000034  -0.393927   0.000252   0.135192   0.555967
   39  H  2  X    0.027376  -0.015656   0.011544  -0.012359   0.019591
   40  H  2  Y    0.016065   0.002611   0.006765   0.034932  -0.027090
   41  H  2  Z   -0.013572  -0.028493  -0.005721   0.016476   0.007491
   42  H  2  X   -0.559435   0.382528  -0.277302  -0.149107  -0.399012
   43  H  2  Y   -0.328335  -0.103269  -0.162530   0.225117   0.364302
   44  H  2  Z    0.277348   0.649468   0.137465  -0.035751  -0.374665
   45  H  2 XX    0.010753  -0.008388   0.003786  -0.016519   0.004735
   46  H  2 YY   -0.003039  -0.002741   0.012190   0.039054  -0.003321
   47  H  2 ZZ   -0.007714   0.011129  -0.015976  -0.022535  -0.001414
   48  H  2 XY    0.000646   0.015924   0.013262  -0.038469  -0.014521
   49  H  2 XZ    0.005918  -0.009431   0.017528  -0.006305   0.016777
   50  H  2 YZ    0.006766   0.023276   0.004981   0.021292  -0.020405
   51  H  3  S    0.010011  -0.019688   0.001831   0.035701   0.028655
   52  H  3  S    0.138836  -0.493431  -1.906293  -1.083499  -0.401311
   53  H  3  S    0.145831  -0.039950  -1.097334   0.099951  -0.267020
   54  H  3  X   -0.021196   0.029204   0.011169   0.013046  -0.009060
   55  H  3  Y    0.013479  -0.005586   0.034151   0.016775  -0.007977
   56  H  3  Z    0.017056   0.015431  -0.016069   0.001685   0.030596
   57  H  3  X    0.427336  -0.302744   0.352276   0.009234   0.088974
   58  H  3  Y   -0.349107   0.339442  -0.242935  -0.055089   0.067282
   59  H  3  Z   -0.449349  -0.210898   0.455352  -0.034113  -0.538517
   60  H  3 XX   -0.012755   0.002050  -0.026430   0.018949  -0.002063
   61  H  3 YY    0.000003  -0.001447   0.020371  -0.020178   0.012598
   62  H  3 ZZ    0.012752  -0.000603   0.006059   0.001228  -0.010534
   63  H  3 XY    0.007312  -0.003632  -0.016356   0.000654  -0.004042
   64  H  3 XZ    0.010566   0.000607  -0.005677  -0.007205  -0.012492
   65  H  3 YZ    0.005712   0.005946  -0.009811  -0.012646  -0.005423
   66  H  4  S   -0.010030  -0.019699  -0.001844   0.035722   0.028669
   67  H  4  S   -0.138688  -0.494142   1.905627  -1.084280  -0.402106
   68  H  4  S   -0.145755  -0.040167   1.097210   0.099763  -0.267699
   69  H  4  X   -0.006140   0.006183   0.038122  -0.014720   0.027281
   70  H  4  Y   -0.029512  -0.019080  -0.005248   0.000511   0.013352
   71  H  4  Z   -0.003492   0.026829  -0.008306   0.015434   0.012578
   72  H  4  X    0.132625  -0.303594  -0.372409   0.017079  -0.408073
   73  H  4  Y    0.677400   0.338515   0.231493  -0.051038  -0.224466
   74  H  4  Z    0.171481  -0.210299  -0.445957  -0.037719  -0.292023
   75  H  4 XX    0.000969  -0.006980  -0.015686   0.003057   0.009109
   76  H  4 YY    0.013424   0.005046  -0.003938   0.002367   0.008345
   77  H  4 ZZ   -0.014393   0.001934   0.019624  -0.005424  -0.017454
   78  H  4 XY    0.001910  -0.000311   0.018276   0.017430  -0.004446
   79  H  4 XZ   -0.005279   0.000231  -0.012245   0.005096  -0.007625
   80  H  4 YZ   -0.011115   0.001051  -0.015791  -0.019074   0.001373
   81  O  5  S    0.000008   0.028361   0.000047  -0.082454  -0.008990
   82  O  5  S    0.000056   0.135220   0.000151  -0.239931  -0.016965
   83  O  5  S    0.000022   0.050688   0.000043  -0.067045  -0.012847
   84  O  5  S   -0.000144  -0.734604   0.000084   1.123497   2.472529
   85  O  5  X   -0.007742   0.007970   0.071906   0.020026   0.050648
   86  O  5  Y   -0.004557   0.043160   0.042168  -0.034422   0.046036
[...]
 OXYGEN      8.0  -2.5150212058   0.0030666095  -3.4501737683
 ...... END OF ONE-ELECTRON INTEGRALS ......
 CPU     0: STEP CPU TIME=     0.00 TOTAL CPU TIME=        107.0 (      1.8 MIN)
 TOTAL WALL CLOCK TIME=        136.6 SECONDS, CPU UTILIZATION IS    78.31%
  ...... END OF TWO-ELECTRON INTEGRALS .....
 CPU     0: STEP CPU TIME=     0.01 TOTAL CPU TIME=        107.0 (      1.8 MIN)
 TOTAL WALL CLOCK TIME=        136.6 SECONDS, CPU UTILIZATION IS    78.31%

          ---------------------------
              U-B3LYP SCF CALCULATION
          ---------------------------
         DENSITY MATRIX CONVERGENCE THRESHOLD=  2.00E-05
     COARSE -> FINE DFT GRID SWITCH THRESHOLD=  3.00E-04 (SWITCH IN $DFT)
                   HF -> DFT SWITCH THRESHOLD=  5.00E-03 (SWOFF IN $DFT)

 DIRECT SCF CALCULATION, SCHWRZ=T   FDIFF=T

                                                                                                                NONZERO     BLOCKS
 ITER EX      TOTAL ENERGY        E CHANGE  DENSITY CHANGE    DIIS ERROR      VIR. SHIFT       DAMPING        INTEGRALS    SKIPPED
          * * *   INITIATING DIIS PROCEDURE   * * *
   1  0     -114.6512513427  -114.6512513427   0.000305055   0.000432835     0.000000000     1.000000000       21869488        189
   2  1     -114.6512519961    -0.0000006535   0.000197899   0.000335766     0.000000000     1.000000000       21463782       5749
   3  2     -114.6512521983    -0.0000002021   0.000104287   0.000249524     0.000000000     1.000000000       21081965       9190
   4  3     -114.6512524747    -0.0000002765   0.000024443   0.000056220     0.000000000     1.000000000       20815469      12225
   5  4     -114.6512524853    -0.0000000105   0.000015660   0.000015439     0.000000000     1.000000000       20183054      20121
   6  5     -114.6512524870    -0.0000000017   0.000006112   0.000005459     0.000000000     1.000000000       19584379      25322

          -----------------
          DENSITY CONVERGED
          -----------------
     TIME TO FORM FOCK OPERATORS=       2.2 SECONDS (       0.4 SEC/ITER)
     FOCK TIME ON FIRST ITERATION=       0.4, LAST ITERATION=       0.3
     TIME TO SOLVE SCF EQUATIONS=       0.1 SECONDS (       0.0 SEC/ITER)

          ----------------------------
          DFT-D PARAMETERS AND RESULTS
          ----------------------------
 C6 COEFFICIENTS USED:
       2 C6 FOR ELEMENT   1
  Z=  1 CN= 0.912     C6(AA)=    3.03
  Z=  1 CN= 0.000     C6(AA)=    7.59
       5 C6 FOR ELEMENT   6
  Z=  6 CN= 0.000     C6(AA)=   49.11
  Z=  6 CN= 0.987     C6(AA)=   43.25
  Z=  6 CN= 1.998     C6(AA)=   29.36
  Z=  6 CN= 2.999     C6(AA)=   25.78
  Z=  6 CN= 3.984     C6(AA)=   18.21
       3 C6 FOR ELEMENT   8
  Z=  8 CN= 0.000     C6(AA)=   15.51
  Z=  8 CN= 0.993     C6(AA)=   12.82
  Z=  8 CN= 1.989     C6(AA)=   10.37

 #          XYZ [AU]             R0(AA) [ANG.]  CN         C6(AA)     C8(AA)   C10(AA) [AU]
  1  -3.69322   0.06317  -4.31349    6  1.455  3.956        18.4       531.4     18828.0
  2  -2.52154  -1.69901  -4.03227    1  1.091  0.989         3.1        37.4       554.2
  3  -2.42633   1.77011  -4.15229    1  1.091  0.989         3.1        37.4       554.2
  4  -5.18117   0.15314  -2.78892    1  1.091  0.989         3.1        37.4       554.2
  5  -4.75270   0.00580  -6.51988    8  1.241  1.008        12.8       258.4      6387.7

     MOLECULAR C6(AA) [AU] =       171.11

           DFT-D V3(BJ)
 
 FUNCTIONAL: B3LYP   
 
 PARAMETERS
 S6       :    1.0000
 RS6      :    1.2610
 S18      :    1.7030
 RS18     :    1.0000
 ALPHA6   :   14.0000
 ALPHA8   :   16.0000
 K1-K3    :   16.0000    1.3333    4.0000
 
 EDISP /KCAL,AU:    -0.3605 -0.00057446

 E6    /KCAL :    -0.0094
 E8    /KCAL :    -0.3511
 % E8        : 97.39

 FINAL U-B3LYP ENERGY IS     -114.6518269487 AFTER   6 ITERATIONS
 DFT EXCHANGE + CORRELATION ENERGY =       -11.8356921159
 TOTAL ELECTRON NUMBER             =        16.0000250888
 GRIMME'S DISPERSION ENERGY                     =       -0.0005744617
 ENERGY WITHOUT GRIMME'S DISPERSION CORRECTION IS     -114.6512524870

          --------------------
          SPIN SZ   =    1.000
          S-SQUARED =    2.011
          --------------------
 ...... END OF UHF CALCULATION ......
 CPU     0: STEP CPU TIME=     2.30 TOTAL CPU TIME=        109.3 (      1.8 MIN)
 TOTAL WALL CLOCK TIME=        139.7 SECONDS, CPU UTILIZATION IS    78.23%

          ----------------------------
          DFT-D PARAMETERS AND RESULTS
          ----------------------------
 C6 COEFFICIENTS USED:
       2 C6 FOR ELEMENT   1
  Z=  1 CN= 0.912     C6(AA)=    3.03
  Z=  1 CN= 0.000     C6(AA)=    7.59
       5 C6 FOR ELEMENT   6
  Z=  6 CN= 0.000     C6(AA)=   49.11
  Z=  6 CN= 0.987     C6(AA)=   43.25
  Z=  6 CN= 1.998     C6(AA)=   29.36
  Z=  6 CN= 2.999     C6(AA)=   25.78
  Z=  6 CN= 3.984     C6(AA)=   18.21
       3 C6 FOR ELEMENT   8
  Z=  8 CN= 0.000     C6(AA)=   15.51
  Z=  8 CN= 0.993     C6(AA)=   12.82
  Z=  8 CN= 1.989     C6(AA)=   10.37

 #          XYZ [AU]             R0(AA) [ANG.]  CN         C6(AA)     C8(AA)   C10(AA) [AU]
  1  -3.69322   0.06317  -4.31349    6  1.455  3.956        18.4       531.4     18828.0
  2  -2.52154  -1.69901  -4.03227    1  1.091  0.989         3.1        37.4       554.2
  3  -2.42633   1.77011  -4.15229    1  1.091  0.989         3.1        37.4       554.2
  4  -5.18117   0.15314  -2.78892    1  1.091  0.989         3.1        37.4       554.2
  5  -4.75270   0.00580  -6.51988    8  1.241  1.008        12.8       258.4      6387.7

     MOLECULAR C6(AA) [AU] =       171.11

           DFT-D V3(BJ)
 
 FUNCTIONAL: B3LYP   
 
 PARAMETERS
 S6       :    1.0000
 RS6      :    1.2610
 S18      :    1.7030
 RS18     :    1.0000
 ALPHA6   :   14.0000
 ALPHA8   :   16.0000
 K1-K3    :   16.0000    1.3333    4.0000
 
 EDISP /KCAL,AU:    -0.3605 -0.00057446

 E6    /KCAL :    -0.0094
 E8    /KCAL :    -0.3511
 % E8        : 97.39
 ..... END OF 1-ELECTRON GRADIENT ......
 CPU     0: STEP CPU TIME=     0.01 TOTAL CPU TIME=        109.3 (      1.8 MIN)
 TOTAL WALL CLOCK TIME=        139.7 SECONDS, CPU UTILIZATION IS    78.22%
 MEMORY FOR GRID POINT CONTRIBUTIONS TO THE DFT GRADIENT=    262292 WORDS.
 CPU     0: STEP CPU TIME=     0.36 TOTAL CPU TIME=        109.7 (      1.8 MIN)
 TOTAL WALL CLOCK TIME=        140.2 SECONDS, CPU UTILIZATION IS    78.21%
 ...... END OF 2-ELECTRON GRADIENT ......
 CPU     0: STEP CPU TIME=     0.31 TOTAL CPU TIME=        110.0 (      1.8 MIN)
 TOTAL WALL CLOCK TIME=        140.6 SECONDS, CPU UTILIZATION IS    78.24%

 UNITS ARE HARTREE/BOHR    E'X               E'Y               E'Z 
    1 CARBON          -0.000362041       0.000737924       0.000177849
    2 HYDROGEN         0.000069815      -0.000282605      -0.000186428
    3 HYDROGEN        -0.000004758      -0.000132106       0.000029363
    4 HYDROGEN         0.000132587      -0.000063938      -0.000040830
    5 OXYGEN           0.000164397      -0.000259275       0.000020046

 ANGLE TO PREVIOUS OPTIMIZATION POINT IS   6.523
 LINEAR INTERPOLATION GIVES ANGLE          4.801

 CURRENT OPTIMIZATION POINT :
 ENERGY                                 =  -114.6518269 HARTREE
 MASS WEIGHTED TANGENT GRADIENT NORM    =     0.0003264 HARTREE/BOHR-SQRT(AMU)
 NEXT GEOMETRY STEP HAS PREDICTED ANGLE =         2.258 DEGREES
 AND CARTESIAN RMS DISPLACEMENT         =     0.0015390 BOHR

 CONSTRAINED OPTIMIZATION POINT   5 FOR PATH POINT  15
 COORDINATES OF SYMMETRY UNIQUE ATOMS (ANGS)
   ATOM   CHARGE       X              Y              Z
 ------------------------------------------------------------
 CARBON      6.0  -1.9543494250   0.0333949585  -2.2826302034
 HYDROGEN    1.0  -1.3345005806  -0.8985065218  -2.1334294072
 HYDROGEN    1.0  -1.2836368454   0.9366952092  -2.1968930360
 HYDROGEN    1.0  -2.7416515778   0.0809422661  -1.4753995365
 OXYGEN      8.0  -2.5150504018   0.0030626355  -3.4502270626
 ...... END OF ONE-ELECTRON INTEGRALS ......
 CPU     0: STEP CPU TIME=     0.00 TOTAL CPU TIME=        110.0 (      1.8 MIN)
 TOTAL WALL CLOCK TIME=        140.6 SECONDS, CPU UTILIZATION IS    78.24%
  ...... END OF TWO-ELECTRON INTEGRALS .....
 CPU     0: STEP CPU TIME=     0.01 TOTAL CPU TIME=        110.0 (      1.8 MIN)
 TOTAL WALL CLOCK TIME=        140.6 SECONDS, CPU UTILIZATION IS    78.24%

          ---------------------------
              U-B3LYP SCF CALCULATION
          ---------------------------
         DENSITY MATRIX CONVERGENCE THRESHOLD=  2.00E-05
     COARSE -> FINE DFT GRID SWITCH THRESHOLD=  3.00E-04 (SWITCH IN $DFT)
                   HF -> DFT SWITCH THRESHOLD=  5.00E-03 (SWOFF IN $DFT)

 DIRECT SCF CALCULATION, SCHWRZ=T   FDIFF=T

                                                                                                                NONZERO     BLOCKS
 ITER EX      TOTAL ENERGY        E CHANGE  DENSITY CHANGE    DIIS ERROR      VIR. SHIFT       DAMPING        INTEGRALS    SKIPPED
          * * *   INITIATING DIIS PROCEDURE   * * *
   1  0     -114.6512522251  -114.6512522251   0.000084819   0.000124214     0.000000000     1.000000000       21869466        189
   2  1     -114.6512523143    -0.0000000893   0.000034754   0.000052235     0.000000000     1.000000000       21158075       9623
   3  2     -114.6512523208    -0.0000000064   0.000007527   0.000019908     0.000000000     1.000000000       20442158      17826
   4  3     -114.6512523220    -0.0000000013   0.000003906   0.000003886     0.000000000     1.000000000       19655575      25925

          -----------------
          DENSITY CONVERGED
          -----------------
     TIME TO FORM FOCK OPERATORS=       1.4 SECONDS (       0.3 SEC/ITER)
     FOCK TIME ON FIRST ITERATION=       0.3, LAST ITERATION=       0.4
     TIME TO SOLVE SCF EQUATIONS=       0.1 SECONDS (       0.0 SEC/ITER)

          ----------------------------
          DFT-D PARAMETERS AND RESULTS
          ----------------------------
 C6 COEFFICIENTS USED:
       2 C6 FOR ELEMENT   1
  Z=  1 CN= 0.912     C6(AA)=    3.03
  Z=  1 CN= 0.000     C6(AA)=    7.59
       5 C6 FOR ELEMENT   6
  Z=  6 CN= 0.000     C6(AA)=   49.11
  Z=  6 CN= 0.987     C6(AA)=   43.25
  Z=  6 CN= 1.998     C6(AA)=   29.36
  Z=  6 CN= 2.999     C6(AA)=   25.78
  Z=  6 CN= 3.984     C6(AA)=   18.21
       3 C6 FOR ELEMENT   8
  Z=  8 CN= 0.000     C6(AA)=   15.51
  Z=  8 CN= 0.993     C6(AA)=   12.82
  Z=  8 CN= 1.989     C6(AA)=   10.37

 #          XYZ [AU]             R0(AA) [ANG.]  CN         C6(AA)     C8(AA)   C10(AA) [AU]
  1  -3.69318   0.06311  -4.31355    6  1.455  3.956        18.4       531.4     18828.0
  2  -2.52184  -1.69793  -4.03160    1  1.091  0.989         3.1        37.4       554.2
  3  -2.42572   1.77010  -4.15153    1  1.091  0.989         3.1        37.4       554.2
  4  -5.18097   0.15296  -2.78810    1  1.091  0.989         3.1        37.4       554.2
  5  -4.75276   0.00579  -6.51998    8  1.241  1.008        12.8       258.4      6387.7

     MOLECULAR C6(AA) [AU] =       171.11

           DFT-D V3(BJ)
 
 FUNCTIONAL: B3LYP   
 
 PARAMETERS
 S6       :    1.0000
 RS6      :    1.2610
 S18      :    1.7030
 RS18     :    1.0000
 ALPHA6   :   14.0000
 ALPHA8   :   16.0000
 K1-K3    :   16.0000    1.3333    4.0000
 
 EDISP /KCAL,AU:    -0.3607 -0.00057487

 E6    /KCAL :    -0.0094
 E8    /KCAL :    -0.3513
 % E8        : 97.39

 FINAL U-B3LYP ENERGY IS     -114.6518271945 AFTER   4 ITERATIONS
 DFT EXCHANGE + CORRELATION ENERGY =       -11.8356626411
 TOTAL ELECTRON NUMBER             =        16.0000250239
 GRIMME'S DISPERSION ENERGY                     =       -0.0005748725
 ENERGY WITHOUT GRIMME'S DISPERSION CORRECTION IS     -114.6512523220

          --------------------
          SPIN SZ   =    1.000
          S-SQUARED =    2.011
          --------------------
 ...... END OF UHF CALCULATION ......
 CPU     0: STEP CPU TIME=     1.47 TOTAL CPU TIME=        111.5 (      1.9 MIN)
 TOTAL WALL CLOCK TIME=        142.7 SECONDS, CPU UTILIZATION IS    78.11%

          ----------------------------
          DFT-D PARAMETERS AND RESULTS
          ----------------------------
 C6 COEFFICIENTS USED:
       2 C6 FOR ELEMENT   1
  Z=  1 CN= 0.912     C6(AA)=    3.03
  Z=  1 CN= 0.000     C6(AA)=    7.59
       5 C6 FOR ELEMENT   6
  Z=  6 CN= 0.000     C6(AA)=   49.11
  Z=  6 CN= 0.987     C6(AA)=   43.25
  Z=  6 CN= 1.998     C6(AA)=   29.36
  Z=  6 CN= 2.999     C6(AA)=   25.78
  Z=  6 CN= 3.984     C6(AA)=   18.21
       3 C6 FOR ELEMENT   8
  Z=  8 CN= 0.000     C6(AA)=   15.51
  Z=  8 CN= 0.993     C6(AA)=   12.82
  Z=  8 CN= 1.989     C6(AA)=   10.37

 #          XYZ [AU]             R0(AA) [ANG.]  CN         C6(AA)     C8(AA)   C10(AA) [AU]
  1  -3.69318   0.06311  -4.31355    6  1.455  3.956        18.4       531.4     18828.0
  2  -2.52184  -1.69793  -4.03160    1  1.091  0.989         3.1        37.4       554.2
  3  -2.42572   1.77010  -4.15153    1  1.091  0.989         3.1        37.4       554.2
  4  -5.18097   0.15296  -2.78810    1  1.091  0.989         3.1        37.4       554.2
  5  -4.75276   0.00579  -6.51998    8  1.241  1.008        12.8       258.4      6387.7

     MOLECULAR C6(AA) [AU] =       171.11

           DFT-D V3(BJ)
 
 FUNCTIONAL: B3LYP   
 
 PARAMETERS
 S6       :    1.0000
 RS6      :    1.2610
 S18      :    1.7030
 RS18     :    1.0000
 ALPHA6   :   14.0000
 ALPHA8   :   16.0000
 K1-K3    :   16.0000    1.3333    4.0000
 
 EDISP /KCAL,AU:    -0.3607 -0.00057487

 E6    /KCAL :    -0.0094
 E8    /KCAL :    -0.3513
 % E8        : 97.39
 ..... END OF 1-ELECTRON GRADIENT ......
 CPU     0: STEP CPU TIME=     0.01 TOTAL CPU TIME=        111.5 (      1.9 MIN)
 TOTAL WALL CLOCK TIME=        142.7 SECONDS, CPU UTILIZATION IS    78.10%
 MEMORY FOR GRID POINT CONTRIBUTIONS TO THE DFT GRADIENT=    262292 WORDS.
 CPU     0: STEP CPU TIME=     0.41 TOTAL CPU TIME=        111.9 (      1.9 MIN)
 TOTAL WALL CLOCK TIME=        143.2 SECONDS, CPU UTILIZATION IS    78.13%
 ...... END OF 2-ELECTRON GRADIENT ......
 CPU     0: STEP CPU TIME=     0.29 TOTAL CPU TIME=        112.2 (      1.9 MIN)
 TOTAL WALL CLOCK TIME=        143.5 SECONDS, CPU UTILIZATION IS    78.16%

 UNITS ARE HARTREE/BOHR    E'X               E'Y               E'Z 
    1 CARBON          -0.000228750       0.000472155       0.000094552
    2 HYDROGEN        -0.000062225      -0.000049435      -0.000179134
    3 HYDROGEN         0.000090506      -0.000068740       0.000077520
    4 HYDROGEN         0.000078074      -0.000079483       0.000081234
    5 OXYGEN           0.000122395      -0.000274497      -0.000074172

 ANGLE TO PREVIOUS OPTIMIZATION POINT IS   2.258
 LINEAR INTERPOLATION GIVES ANGLE          2.227

 CURRENT OPTIMIZATION POINT :
 ENERGY                                 =  -114.6518272 HARTREE
 MASS WEIGHTED TANGENT GRADIENT NORM    =     0.0000174 HARTREE/BOHR-SQRT(AMU)
 NEXT GEOMETRY STEP HAS PREDICTED ANGLE =         0.389 DEGREES
 AND CARTESIAN RMS DISPLACEMENT         =     0.0003330 BOHR

 *******************************************
 ***** END OF CONSTRAINED OPTIMIZATION *****
 *******************************************

 ANGLE BETWEEN GRADIENTS AT CURRENT AND PREVIOUS IRC POINT = 179.595
 ENERGY WAS LOWERED BY      0.0001116739 HARTREE DURING OPTIMIZATION

 CURRENT ENERGY=     -114.6518271945, IS HIGHER THAN THE
    LAST ENERGY=     -114.6518271964
 YOU ARE NO LONGER ON A STEEPEST DESCENT PATH!
 YOU MAY JUST HAVE PASSED THROUGH A MINIMUM
 EXECUTION OF GAMESS TERMINATED -ABNORMALLY- AT Thu Mar  5 12:43:13 2020
               2601469  WORDS OF DYNAMIC MEMORY USED
 CPU     0: STEP CPU TIME=     0.00 TOTAL CPU TIME=        112.2 (      1.9 MIN)
 TOTAL WALL CLOCK TIME=        143.5 SECONDS, CPU UTILIZATION IS    78.15%
 DDI Process 0: error code 911
 ddikick.x: application process 0 quit unexpectedly.
 ddikick.x: Fatal error detected.
 The error is most likely to be in the application, so check for
 input errors, disk space, memory needs, application bugs, etc.
 ddikick.x will now clean up all processes, and exit...
 DDI Process 2: terminated upon request.
 DDI Process 1: terminated upon request.
 DDI Process 3: terminated upon request.
 DDI Process 4: terminated upon request.
 DDI Process 5: terminated upon request.
 DDI Process 11: terminated upon request.
 DDI Process 9: terminated upon request.
 DDI Process 6: terminated upon request.
 DDI Process 8: terminated upon request.
 DDI Process 10: terminated upon request.
 DDI Process 7: terminated upon request.
 ddikick.x: Sending kill signal to DDI processes.
 ddikick.x: Execution terminated due to error(s).
echo copy *.dat file
copy *.dat file
cp /home/seva/scr/meth_cat_IRC.dat .
/home/sergey/scripts/rmtmp.sh
My running nodes: [compute-0-13.local ]
Deleting files local temp
unset echo
----- accounting info -----
Files used on the master node compute-0-13.local were:
-rw-rw-r-- 1 seva seva    4403 Mar  5 12:40 /state/partition1/scr/seva/meth_cat_IRC.F05
-rw-rw-r-- 1 seva seva 2650320 Mar  5 12:43 /state/partition1/scr/seva/meth_cat_IRC.F10
-rw-rw-r-- 1 seva seva 1561824 Mar  5 12:43 /state/partition1/scr/seva/meth_cat_IRC.F22
-rw-rw-r-- 1 seva seva 1561824 Mar  5 12:43 /state/partition1/scr/seva/meth_cat_IRC.F22.001
-rw-rw-r-- 1 seva seva 1561824 Mar  5 12:43 /state/partition1/scr/seva/meth_cat_IRC.F22.002
-rw-rw-r-- 1 seva seva 1561824 Mar  5 12:43 /state/partition1/scr/seva/meth_cat_IRC.F22.003
-rw-rw-r-- 1 seva seva 1561824 Mar  5 12:43 /state/partition1/scr/seva/meth_cat_IRC.F22.004
-rw-rw-r-- 1 seva seva 1561824 Mar  5 12:43 /state/partition1/scr/seva/meth_cat_IRC.F22.005
-rw-rw-r-- 1 seva seva 1561824 Mar  5 12:43 /state/partition1/scr/seva/meth_cat_IRC.F22.006
-rw-rw-r-- 1 seva seva 1561824 Mar  5 12:43 /state/partition1/scr/seva/meth_cat_IRC.F22.007
-rw-rw-r-- 1 seva seva 1561824 Mar  5 12:43 /state/partition1/scr/seva/meth_cat_IRC.F22.008
-rw-rw-r-- 1 seva seva 1561824 Mar  5 12:43 /state/partition1/scr/seva/meth_cat_IRC.F22.009
-rw-rw-r-- 1 seva seva 1561824 Mar  5 12:43 /state/partition1/scr/seva/meth_cat_IRC.F22.010
-rw-rw-r-- 1 seva seva 1561824 Mar  5 12:43 /state/partition1/scr/seva/meth_cat_IRC.F22.011
ls: No match.
ls: No match.
ls: No match.
Thu Mar  5 12:43:15 PST 2020
0.389u 0.182s 2:27.36 0.3%	0+0k 144+4168io 1pf+0w
Removing semaphores for seva
Semaphores remain for other users:

------ Semaphore Arrays --------
key        semid      owner      perms      nsems     
0x00000000 90636288   amir       600        25        
0x00000000 90669057   amir       600        25        
0x00000000 90701826   amir       600        25        
0x00000000 90734595   amir       600        1         
0x00000000 90767364   amir       600        25        
0x00000000 90800133   amir       600        25        
0x00000000 90832902   amir       600        25        
0x00000000 90865671   amir       600        25        
0x00000000 90898440   amir       600        25        
0x00000000 90931209   amir       600        25        
0x00000000 90963978   amir       600        25        
0x00000000 90996747   amir       600        25        
0x00000000 91029516   amir       600        25        
0x00000000 91062285   amir       600        25        
0x00000000 91553806   amir       600        25        
0x00000000 91586575   amir       600        25        
0x00000000 91619344   amir       600        25        
0x00000000 91652113   amir       600        25        
0x00000000 91684882   amir       600        1         
0x00000000 91717651   amir       600        25        
0x00000000 91750420   amir       600        25        
0x00000000 91783189   amir       600        25        
0x00000000 91815958   amir       600        25        
0x00000000 91848727   amir       600        25        
0x00000000 91881496   amir       600        25        
0x00000000 91914265   amir       600        25        
0x00000000 91947034   amir       600        25        
0x00000000 91979803   amir       600        25        

