Warning: no access to tty (Bad file descriptor).
Thus no job control in this shell.
----- GAMESS execution script 'rungms' -----
This job is running on host compute-0-9.local
under operating system Linux at Thu Mar 5 15:48:33 PST 2020
Available scratch disk space (Kbyte units) at beginning of the job is
Filesystem      1K-blocks    Used  Available Use% Mounted on
/dev/sda5      1123698384 4364784 1062229728   1% /state/partition1
GAMESS temporary binary files will be written to /state/partition1/scr/seva
GAMESS supplementary output files will be written to /home/seva/scr
Copying input file meth_cat_IRC_s.inp to your run's scratch directory...
cp meth_cat_IRC_s.inp /state/partition1/scr/seva/meth_cat_IRC_s.F05
unset echo
/home/sergey/scripts/mktmp.sh
My running nodes: [compute-0-9.local ]
Trying node compute-0-9.local
mkdir: cannot create directory ‘/tmp/8083.1.medium.q’: File exists
/home/apps/gamess/gamess2018c/ddikick.x /home/apps/gamess/gamess2018c/gamess.00.x meth_cat_IRC_s -ddi 1 12 compute-0-9.local:cpus=12 -scr /state/partition1/scr/seva

 Distributed Data Interface kickoff program.
 Initiating 12 compute processes on 1 nodes to run the following command:
 /home/apps/gamess/gamess2018c/gamess.00.x meth_cat_IRC_s 

          ******************************************************
          *         GAMESS VERSION = 14 FEB 2018 (R1)         *
          *             FROM IOWA STATE UNIVERSITY             *
          * M.W.SCHMIDT, K.K.BALDRIDGE, J.A.BOATZ, S.T.ELBERT, *
          *   M.S.GORDON, J.H.JENSEN, S.KOSEKI, N.MATSUNAGA,   *
          *          K.A.NGUYEN, S.J.SU, T.L.WINDUS,           *
          *       TOGETHER WITH M.DUPUIS, J.A.MONTGOMERY       *
          *         J.COMPUT.CHEM.  14, 1347-1363(1993)        *
          **************** 64 BIT INTEL VERSION ****************

  SINCE 1993, STUDENTS AND POSTDOCS WORKING AT IOWA STATE UNIVERSITY
  AND ALSO IN THEIR VARIOUS JOBS AFTER LEAVING ISU HAVE MADE IMPORTANT
  CONTRIBUTIONS TO THE CODE:
     IVANA ADAMOVIC, CHRISTINE AIKENS, YURI ALEXEEV, POOJA ARORA,
     ANDREY ASADCHEV, ROB BELL, PRADIPTA BANDYOPADHYAY, JONATHAN BENTZ,
     BRETT BODE, KURT BRORSEN, CALEB CARLIN, GALINA CHABAN, WEI CHEN,
     CHEOL HO CHOI, PAUL DAY, ALBERT DEFUSCO, NUWAN DESILVA, TIM DUDLEY,
     DMITRI FEDOROV, ALEX FINDLATER, GRAHAM FLETCHER, MARK FREITAG,
     KURT GLAESEMANN, ANASTASIA GUININA,
     DAN KEMP, GRANT MERRILL, NORIYUKI MINEZAWA, JONATHAN MULLIN,
     TAKESHI NAGATA, SEAN NEDD, HEATHER NETZLOFF, BOSILJKA NJEGIC, RYAN OLSON,
     MIKE PAK, BUU PHAM,
     SPENCER PRUITT, LUKE ROSKOP, JIM SHOEMAKER, LYUDMILA SLIPCHENKO,
     TONY SMITH, SAROM SOK LEANG, JIE SONG, TETSUYA TAKETSUGU, SIMON WEBB,
     PENG XU, SOOHAENG YOO, FEDERICO ZAHARIEV

  ADDITIONAL CODE HAS BEEN PROVIDED BY COLLABORATORS IN OTHER GROUPS:
     IOWA STATE UNIVERSITY:
          JOE IVANIC, AARON WEST, LAIMUTIS BYTAUTAS, KLAUS RUEDENBERG
     UNIVERSITY OF TOKYO: KIMIHIKO HIRAO, TAKAHITO NAKAJIMA,
          TAKAO TSUNEDA, MUNEAKI KAMIYA, SUSUMU YANAGISAWA,
          KIYOSHI YAGI, MAHITO CHIBA, SEIKEN TOKURA, NAOAKI KAWAKAMI
     UNIVERSITY OF AARHUS: FRANK JENSEN
     UNIVERSITY OF IOWA: VISVALDAS KAIRYS, HUI LI
     NATIONAL INST. OF STANDARDS AND TECHNOLOGY: WALT STEVENS, DAVID GARMER
     UNIVERSITY OF PISA: BENEDETTA MENNUCCI, JACOPO TOMASI
     UNIVERSITY OF MEMPHIS: HENRY KURTZ, PRAKASHAN KORAMBATH
     UNIVERSITY OF ALBERTA: TOBY ZENG, MARIUSZ KLOBUKOWSKI
     UNIVERSITY OF NEW ENGLAND: MARK SPACKMAN
     MIE UNIVERSITY: HIROAKI UMEDA
     NAT. INST. OF ADVANCED INDUSTRIAL SCIENCE AND TECHNOLOGY: KAZUO KITAURA
     MICHIGAN STATE UNIVERSITY:
          KAROL KOWALSKI, MARTA WLOCH, JEFFREY GOUR, JESSE LUTZ,
          WEI LI, PIOTR PIECUCH
     UNIVERSITY OF SILESIA: MONIKA MUSIAL, STANISLAW KUCHARSKI
     FACULTES UNIVERSITAIRES NOTRE-DAME DE LA PAIX:
          OLIVIER QUINET, BENOIT CHAMPAGNE
     UNIVERSITY OF CALIFORNIA - SANTA BARBARA: BERNARD KIRTMAN
     INSTITUTE FOR MOLECULAR SCIENCE:
          KAZUYA ISHIMURA, MICHIO KATOUDA, AND SHIGERU NAGASE
     UNIVERSITY OF NOTRE DAME: ANNA POMOGAEVA, DAN CHIPMAN
     KYUSHU UNIVERSITY:
          HARUYUKI NAKANO,
          FENG LONG GU, JACEK KORCHOWIEC, MARCIN MAKOWSKI, AND YURIKO AOKI,
          HIROTOSHI MORI AND EISAKU MIYOSHI
     PENNSYLVANIA STATE UNIVERSITY:
          TZVETELIN IORDANOV, CHET SWALINA, JONATHAN SKONE,
          SHARON HAMMES-SCHIFFER
     WASEDA UNIVERSITY:
          MASATO KOBAYASHI, TOMOKO AKAMA, TSUGUKI TOUMA,
          TAKESHI YOSHIKAWA, YASUHIRO IKABATA, JUNJI SEINO,
          YUYA NAKAJIMA, HIROMI NAKAI
     NANJING UNIVERSITY: SHUHUA LI
     UNIVERSITY OF NEBRASKA:
          PEIFENG SU, DEJUN SI, NANDUN THELLAMUREGE, YALI WANG, HUI LI
     UNIVERSITY OF ZURICH: ROBERTO PEVERATI, KIM BALDRIDGE
     N. COPERNICUS UNIVERSITY AND JACKSON STATE UNIVERSITY:
          MARIA BARYSZ
     UNIVERSITY OF COPENHAGEN: Jimmy Kromann, CASPER STEINMANN
     TOKYO INSTITUTE OF TECHNOLOGY: HIROYA NAKATA
     NAGOYA UNIVERSITY: YOSHIO NISHIMOTO, STEPHAN IRLE
     MOSCOW STATE UNIVERSITY: VLADIMIR MIRONOV


 PARALLEL VERSION RUNNING ON       12 PROCESSORS IN        1 NODES.

 EXECUTION OF GAMESS BEGUN Thu Mar  5 15:48:34 2020

            ECHO OF THE FIRST FEW INPUT CARDS -
 INPUT CARD> $contrl scftyp=uhf dfttyp=b3lyp runtyp=irc                                     
 INPUT CARD> icharg=1 mult=1 ispher=1 maxit=200 $end                                        
 INPUT CARD> $system mwords=500 $end                                                        
 INPUT CARD> $SCF DIRSCF=.T. SHIFT=.t. damp=.t. $END                                        
 INPUT CARD> $statpt hess=read nstep=400 $end                                               
 INPUT CARD> $irc pace=gs2 stride=0.10 npoint=25 $end                                       
 INPUT CARD> $dft nleb0=302 nrad0=96 DC=.t. IDCVER=3 $end                                   
 INPUT CARD> $basis gbasis=cct $END                                                         
 INPUT CARD> $DATA                                                                          
 INPUT CARD> CH3O                                                                           
 INPUT CARD>C1                                                                              
 INPUT CARD>CARBON      6.0     -1.995582544         0.117805253        -2.265569761        
 INPUT CARD>HYDROGEN    1.0     -1.528874436        -0.977384735        -2.620119942        
 INPUT CARD>HYDROGEN    1.0     -1.117725795         0.783615545        -2.152576439        
 INPUT CARD>HYDROGEN    1.0     -2.643329830        -0.111549650        -1.396866418        
 INPUT CARD>OXYGEN      8.0     -2.488517471        -0.033521029        -3.440101181        
 INPUT CARD> $END                                                                           
 INPUT CARD>                                                                                
 INPUT CARD> $HESS                                                                          
 INPUT CARD>ENERGY IS     -114.6214870595 E(NUC) IS       35.7480086589                     
 INPUT CARD> 1  1 4.55701097E-01 1.38468279E-01 3.02449648E-02-1.47392683E-03 6.31303549E-02
 INPUT CARD> 1  2-1.22169529E-02-1.81108037E-01-1.28251391E-01 2.77047744E-03-1.52380671E-01
 INPUT CARD> 1  3-1.90614973E-02 1.00715900E-01-1.20877486E-01-5.44788711E-02-1.21159192E-01
 INPUT CARD> 2  1 1.38468279E-01 3.31706726E-01 5.35623676E-02 8.42728206E-02-1.01182708E-01
 INPUT CARD> 2  2 1.54717231E-03-9.55015261E-02-1.43774402E-01-9.35029130E-03-4.85132845E-02
 INPUT CARD> 2  3-6.22718729E-02 3.29911970E-02-7.87786698E-02-2.45834342E-02-7.85664043E-02
 INPUT CARD> 3  1 3.02449648E-02 5.35623676E-02 6.46603218E-01 1.31554223E-02-4.11705325E-02
 INPUT CARD> 3  2 1.86050482E-02-1.86697120E-03-1.17824963E-03-6.21089047E-02 1.08851033E-01
 INPUT CARD> 3  3 1.81935062E-02-1.72794144E-01-1.50269573E-01-2.93302260E-02-4.30490501E-01
 INPUT CARD> 4  1-1.47392683E-03 8.42728206E-02 1.31554223E-02 2.45372958E-02-6.49876514E-02
 INPUT CARD> 4  2-2.36919626E-02-7.77784607E-03-8.41888988E-03 1.51087243E-03-4.85640525E-03
 INPUT CARD> 4  3-4.79362416E-03 6.00938111E-03-1.03666499E-02-5.99402542E-03 2.89281016E-03
 INPUT CARD> 5  1 6.31303549E-02-1.01182708E-01-4.11705325E-02-6.49876514E-02 1.34390251E-01
 INPUT CARD> 5  2 2.97219974E-02-6.26150766E-03-5.89652699E-03 1.74864592E-03-1.18854081E-03
 INPUT CARD> 5  3-1.64163485E-03 2.72410763E-03 9.33454161E-03-2.56277385E-02 6.88306783E-03
 INPUT CARD> 6  1-1.22169529E-02 1.54717231E-03 1.86050482E-02-2.36919626E-02 2.97219974E-02
 INPUT CARD> 6  2-1.42553183E-02 3.08446771E-03-5.42981082E-03 1.96774801E-03 1.14613080E-02
 INPUT CARD> 6  3-1.59791766E-03-5.04648883E-03 2.13247914E-02-2.42752848E-02-1.18518249E-03
 INPUT CARD> 7  1-1.81108037E-01-9.55015261E-02-1.86697120E-03-7.77784607E-03-6.26150766E-03
 INPUT CARD> 7  2 3.08446771E-03 1.95420855E-01 1.35718669E-01 1.98449256E-02-1.48922165E-03
 INPUT CARD> 7  3-2.17919110E-02 8.75947772E-04-4.99210127E-03-1.21004433E-02-2.20723741E-02
 INPUT CARD> 8  1-1.28251391E-01-1.43774402E-01-1.17824963E-03-8.41888988E-03-5.89652699E-03
 INPUT CARD> 8  2-5.42981082E-03 1.35718669E-01 1.28760443E-01 1.38826378E-02-1.65577370E-03
 INPUT CARD> 8  3 1.22178220E-02-3.72727871E-03 2.58344185E-03 8.67074962E-03-3.51577388E-03
 INPUT CARD> 9  1 2.77047744E-03-9.35029130E-03-6.21089047E-02 1.51087243E-03 1.74864592E-03
 INPUT CARD> 9  2 1.96774801E-03 1.98449256E-02 1.38826378E-02 6.22665796E-02 1.31528133E-02
 INPUT CARD> 9  3 1.33194282E-02 8.14716332E-03-3.72968055E-02-1.96286070E-02-1.02358602E-02
 INPUT CARD>10  1-1.52380671E-01-4.85132845E-02 1.08851033E-01-4.85640525E-03-1.18854081E-03
 INPUT CARD>10  2 1.14613080E-02-1.48922165E-03-1.65577370E-03 1.31528133E-02 1.39883610E-01
 INPUT CARD>10  3 4.18532063E-02-1.14327632E-01 1.88639000E-02 9.53064785E-03-1.91906985E-02
  500000000 WORDS OF MEMORY AVAILABLE

     BASIS OPTIONS
     -------------
     GBASIS=CCT          IGAUSS=       0      POLAR=NONE    
     NDFUNC=       0     NFFUNC=       0     DIFFSP=       F
     NPFUNC=       0      DIFFS=       F     BASNAM=        


     RUN TITLE
     ---------
  CH3O                                                                           

 THE POINT GROUP OF THE MOLECULE IS C1      
 THE ORDER OF THE PRINCIPAL AXIS IS     0

 ATOM      ATOMIC                      COORDINATES (BOHR)
           CHARGE         X                   Y                   Z
 CARBON      6.0    -3.7711041940        0.2226196481       -4.2813060544
 HYDROGEN    1.0    -2.8891537537       -1.8469893337       -4.9513087453
 HYDROGEN    1.0    -2.1121954820        1.4808186598       -4.0677796373
 HYDROGEN    1.0    -4.9951690739       -0.2107982725       -2.6396947715
 OXYGEN      8.0    -4.7026161358       -0.0633455596       -6.5008486021

          INTERNUCLEAR DISTANCES (ANGS.)
          ------------------------------

                1 CARB       2 HYDR       3 HYDR       4 HYDR       5 OXYG  

   1 CARB    0.0000000    1.2421608 *  1.1075664 *  1.1076216 *  1.2827348 *
   2 HYDR    1.2421608 *  0.0000000    1.8678228 *  1.8676269 *  1.5761227 *
   3 HYDR    1.1075664 *  1.8678228 *  0.0000000    1.9235088 *  2.0504882 *
   4 HYDR    1.1076216 *  1.8676269 *  1.9235088 *  0.0000000    2.0505764 *
   5 OXYG    1.2827348 *  1.5761227 *  2.0504882 *  2.0505764 *  0.0000000  

  * ... LESS THAN  3.000


     ATOMIC BASIS SET
     ----------------
 THE CONTRACTED PRIMITIVE FUNCTIONS HAVE BEEN UNNORMALIZED
 THE CONTRACTED BASIS FUNCTIONS ARE NOW NORMALIZED TO UNITY

  SHELL TYPE  PRIMITIVE        EXPONENT          CONTRACTION COEFFICIENT(S)

 CARBON    

      1   S       1          8236.0000000    0.000542430189
      1   S       2          1235.0000000    0.004196427901
      1   S       3           280.8000000    0.021540914108
      1   S       4            79.2700000    0.083614949614
      1   S       5            25.5900000    0.239871618922
      1   S       6             8.9970000    0.443751820060
      1   S       7             3.3190000    0.353579696469
      1   S       8             0.3643000   -0.009176366076

      2   S       9          8236.0000000   -0.000196392234
      2   S      10          1235.0000000   -0.001525950274
      2   S      11           280.8000000   -0.007890449028
      2   S      12            79.2700000   -0.031514870532
      2   S      13            25.5900000   -0.096910008320
      2   S      14             8.9970000   -0.220541526288
      2   S      15             3.3190000   -0.296069112937
      2   S      16             0.3643000    1.040503432950

      3   S      17             0.9059000    1.000000000000

      4   S      18             0.1285000    1.000000000000

      5   P      19            18.7100000    0.039426387165
      5   P      20             4.1330000    0.244088984924
      5   P      21             1.2000000    0.815492008943

      6   P      22             0.3827000    1.000000000000

      7   P      23             0.1209000    1.000000000000

      8   D      24             1.0970000    1.000000000000

      9   D      25             0.3180000    1.000000000000

     10   F      26             0.7610000    1.000000000000

 HYDROGEN  

     11   S      27            33.8700000    0.025494863235
     11   S      28             5.0950000    0.190362765893
     11   S      29             1.1590000    0.852162022245

     12   S      30             0.3258000    1.000000000000

     13   S      31             0.1027000    1.000000000000

     14   P      32             1.4070000    1.000000000000

     15   P      33             0.3880000    1.000000000000

     16   D      34             1.0570000    1.000000000000

 HYDROGEN  

     17   S      35            33.8700000    0.025494863235
     17   S      36             5.0950000    0.190362765893
     17   S      37             1.1590000    0.852162022245

     18   S      38             0.3258000    1.000000000000

     19   S      39             0.1027000    1.000000000000

     20   P      40             1.4070000    1.000000000000

     21   P      41             0.3880000    1.000000000000

     22   D      42             1.0570000    1.000000000000

 HYDROGEN  

     23   S      43            33.8700000    0.025494863235
     23   S      44             5.0950000    0.190362765893
     23   S      45             1.1590000    0.852162022245

     24   S      46             0.3258000    1.000000000000

     25   S      47             0.1027000    1.000000000000

     26   P      48             1.4070000    1.000000000000

     27   P      49             0.3880000    1.000000000000

     28   D      50             1.0570000    1.000000000000

 OXYGEN    

     29   S      51         15330.0000000    0.000520198307
     29   S      52          2299.0000000    0.004023344781
     29   S      53           522.4000000    0.020729083329
     29   S      54           147.3000000    0.081082327080
     29   S      55            47.5500000    0.236226352118
     29   S      56            16.7600000    0.443518209420
     29   S      57             6.2070000    0.358670588689
     29   S      58             0.6882000   -0.008349797237

     30   S      59         15330.0000000   -0.000197236012
     30   S      60          2299.0000000   -0.001535010700
     30   S      61           522.4000000   -0.007951183914
     30   S      62           147.3000000   -0.032113452892
     30   S      63            47.5500000   -0.100269643049
     30   S      64            16.7600000   -0.234047111838
     30   S      65             6.2070000   -0.301410927756
     30   S      66             0.6882000    1.034919649508

     31   S      67             1.7520000    1.000000000000

     32   S      68             0.2384000    1.000000000000

     33   P      69            34.4600000    0.041163489568
     33   P      70             7.7490000    0.257762835858
     33   P      71             2.2800000    0.802419274427

     34   P      72             0.7156000    1.000000000000

     35   P      73             0.2140000    1.000000000000

     36   D      74             2.3140000    1.000000000000

     37   D      75             0.6450000    1.000000000000

     38   F      76             1.4280000    1.000000000000

 TOTAL NUMBER OF BASIS SET SHELLS             =   38
 NUMBER OF CARTESIAN GAUSSIAN BASIS FUNCTIONS =  115
 NOTE: THIS RUN WILL RESTRICT THE MO VARIATION SPACE TO SPHERICAL HARMONICS.
 THE NUMBER OF ORBITALS KEPT IN THE VARIATIONAL SPACE WILL BE PRINTED LATER.
 NUMBER OF ELECTRONS                          =   16
 CHARGE OF MOLECULE                           =    1
 SPIN MULTIPLICITY                            =    1
 NUMBER OF OCCUPIED ORBITALS (ALPHA)          =    8
 NUMBER OF OCCUPIED ORBITALS (BETA )          =    8
 TOTAL NUMBER OF ATOMS                        =    5
 THE NUCLEAR REPULSION ENERGY IS       35.7480086784

     LEBEDEV GRID-BASED DFT OPTIONS
     ------------------------------
     DFTTYP=B3LYP   
     NRAD  =      96     NLEB  =     302
     NRAD0 =      96     NLEB0 =     302
     SWOFF =    5.00E-03 (PURE SCF -> DFT)
     SWITCH=    3.00E-04 (COARSE -> TIGHT GRID)
     THRESH=    0.00E+00 GTHRE=    1.00E+00

 GRIMME'S EMPIRICAL DISPERSION CORRECTION= T
  ________________________________
 
           DFTD3 V1.2             
   S.GRIMME, UNIVERSITY MUENSTER  
   WED MAR 10 08:38:00 CET 2010   
  ________________________________
 
 PLEASE CITE DFT-D3 WORK DONE WITH THIS CODE AS:
 S. GRIMME, J. ANTONY, S. EHRLICH AND H. KRIEG,
 J. CHEM. PHYS, 132 (2010), 154104.
 IF USED WITH BJ-DAMPING CITE ALSO
 S. GRIMME, S. EHRLICH AND L. GOERIGK,
 J. COMPUT. CHEM. 32 (2011), 1456-1465
 
 DFT-D3 PARAMETERS WILL BE LOADED AND PRINTED
 BEFORE THE RESULTS
 
 IMPLEMENTATION OF DFT-D IN GAMESS BY:
 R.PEVERATI AND K.K.BALDRIDGE, 
 J.CHEM.THEORY COMPUT. 4,(2008), 2030-2048
 

     $CONTRL OPTIONS
     ---------------
 SCFTYP=UHF          RUNTYP=IRC          EXETYP=RUN     
 MPLEVL=       0     CITYP =NONE         CCTYP =NONE         VBTYP =NONE    
 DFTTYP=B3LYP        TDDFT =NONE    
 MULT  =       1     ICHARG=       1     NZVAR =       0     COORD =UNIQUE  
 PP    =NONE         RELWFN=NONE         LOCAL =NONE         NUMGRD=       F
 ISPHER=       1     NOSYM =       0     MAXIT =     200     UNITS =ANGS    
 PLTORB=       F     MOLPLT=       F     AIMPAC=       F     FRIEND=        
 NPRINT=       7     IREST =       0     GEOM  =INPUT   
 NORMF =       0     NORMP =       0     ITOL  =      20     ICUT  =       9
 INTTYP=BEST         GRDTYP=BEST         QMTTOL= 1.0E-06

     $SYSTEM OPTIONS
     ---------------
  REPLICATED MEMORY=   500000000 WORDS (ON EVERY NODE).
 DISTRIBUTED MEMDDI=           0 MILLION WORDS IN AGGREGATE,
 MEMDDI DISTRIBUTED OVER  12 PROCESSORS IS           0 WORDS/PROCESSOR.
 TOTAL MEMORY REQUESTED ON EACH PROCESSOR=   500000000 WORDS.
 TIMLIM=      525600.00 MINUTES, OR     365.0 DAYS.
 PARALL= T  BALTYP=  DLB     KDIAG=    0  COREFL= F
 MXSEQ2=     300 MXSEQ3=     150  mem10=         0

          ----------------
          PROPERTIES INPUT
          ----------------

     MOMENTS            FIELD           POTENTIAL          DENSITY
 IEMOM =       1   IEFLD =       0   IEPOT =       0   IEDEN =       0
 WHERE =COMASS     WHERE =NUCLEI     WHERE =NUCLEI     WHERE =NUCLEI  
 OUTPUT=BOTH       OUTPUT=BOTH       OUTPUT=BOTH       OUTPUT=BOTH    
 IEMINT=       0   IEFINT=       0                     IEDINT=       0
                                                       MORB  =       0
          EXTRAPOLATION IN EFFECT
          DAMPING IN EFFECT
          LEVEL SHIFTING IN EFFECT
          DIIS IN EFFECT
          DIIS or SOSCF will be reset if energy rises
 ORBITAL PRINTING OPTION: NPREO=     1   115     2     1

     -------------------------------
     INTEGRAL TRANSFORMATION OPTIONS
     -------------------------------
     NWORD  =            0
     CUTOFF = 1.0E-09     MPTRAN =       0
     DIRTRF =       T     AOINTS =DUP     

          ----------------------
          INTEGRAL INPUT OPTIONS
          ----------------------
 NOPK  =       1 NORDER=       0 SCHWRZ=       T

     ------------------------------------------
     THE POINT GROUP IS C1 , NAXIS= 0, ORDER= 1
     ------------------------------------------

 -- VARIATIONAL SPACE WILL BE RESTRICTED TO PURE SPHERICAL HARMONICS ONLY --
 AFTER EXCLUDING CONTAMINANT COMBINATIONS FROM THE CARTESIAN GAUSSIAN BASIS
 SET, THE NUMBER OF SPHERICAL HARMONICS KEPT IN THE VARIATION SPACE IS  102

     DIMENSIONS OF THE SYMMETRY SUBSPACES ARE
 A   =  102

 ..... DONE SETTING UP THE RUN .....
 CPU     0: STEP CPU TIME=     0.04 TOTAL CPU TIME=          0.0 (      0.0 MIN)
 TOTAL WALL CLOCK TIME=          0.1 SECONDS, CPU UTILIZATION IS    36.36%

          -----------------------------
          INTRINSIC REACTION COORDINATE
          -----------------------------
          PACE   =GS2     
          STRIDE = 0.10000 BOHR*SQRT(AMU)
          NPOINT =      25
          NEXTPT =       0
          STOTAL =  0.0000 BOHR*SQRT(AMU)
          SAB    =  0.0000 BOHR*SQRT(AMU)
          NPRT   =       0
          NPUN   =       0

          SADDLE =       F
          TSENGY =       F
          FORWRD =       T
          EVIB   = 0.00050 HARTREE
          FREQ   =     0.0 CM**-1

          STABLZ =       F
          ELBOW  =  175.00 DEGREES
          DELTA  = 0.02500 BOHR

          READQB =       F
          EB     =        0.0000000000 HARTREES
          GBNORM =        0.0000000000 HARTREES/SQRT(AMU)-BOHR

          GCUT   = 0.0000500 HARTREES/SQRT(AMU)-BOHR
          RCUT   = 0.0005000 BOHR
          ACUT   =    5.00 DEGREES
          MXOPT  =      20
          IHUPD  =       2

 ATOMIC MASSES USED (IN AMU) ARE
     CARBON        12.0000
     HYDROGEN       1.0078
     HYDROGEN       1.0078
     HYDROGEN       1.0078
     OXYGEN        15.9949
 WARNING! GRADIENTS FROM PREVIOUS IRC POINT NOT FOUND IN $IRC GROUP. GENERATING NEW GRADIENTS AT CURRENT POINT

1         POINT   0 ON THE REACTION PATH
          ******************************
          AT PATH DISTANCE STOTAL =   0.00000     SQRT(AMU)-BOHR
          TOTAL ENERGY            =     0.0000000 HARTREE
 COORDINATES OF SYMMETRY UNIQUE ATOMS (ANGS)
   ATOM   CHARGE       X              Y              Z
 ------------------------------------------------------------
 CARBON      6.0  -1.9955825440   0.1178052530  -2.2655697610
 HYDROGEN    1.0  -1.5288744360  -0.9773847350  -2.6201199420
 HYDROGEN    1.0  -1.1177257950   0.7836155450  -2.1525764390
 HYDROGEN    1.0  -2.6433298300  -0.1115496500  -1.3968664180
 OXYGEN      8.0  -2.4885174710  -0.0335210290  -3.4401011810

          INTERNUCLEAR DISTANCES (ANGS.)
          ------------------------------

                1 CARB       2 HYDR       3 HYDR       4 HYDR       5 OXYG  

   1 CARB    0.0000000    1.2421608 *  1.1075664 *  1.1076216 *  1.2827348 *
   2 HYDR    1.2421608 *  0.0000000    1.8678228 *  1.8676269 *  1.5761227 *
   3 HYDR    1.1075664 *  1.8678228 *  0.0000000    1.9235088 *  2.0504882 *
   4 HYDR    1.1076216 *  1.8676269 *  1.9235088 *  0.0000000    2.0505764 *
   5 OXYG    1.2827348 *  1.5761227 *  2.0504882 *  2.0505764 *  0.0000000  

  * ... LESS THAN  3.000


          ********************
          1 ELECTRON INTEGRALS
          ********************
 ...... END OF ONE-ELECTRON INTEGRALS ......
 CPU     0: STEP CPU TIME=     0.00 TOTAL CPU TIME=          0.0 (      0.0 MIN)
 TOTAL WALL CLOCK TIME=          0.1 SECONDS, CPU UTILIZATION IS    33.33%

          -------------
          GUESS OPTIONS
          -------------
          GUESS =HUCKEL            NORB  =       0          NORDER=       0
          MIX   =       F          PRTMO =       F          PUNMO =       F
          TOLZ  = 1.0E-08          TOLE  = 1.0E-05
          SYMDEN=       F          PURIFY=       F

 INITIAL GUESS ORBITALS GENERATED BY HUCKEL   ROUTINE.
 HUCKEL GUESS REQUIRES     99508 WORDS.

 STATISTICS FOR GENERATION OF SYMMETRY ORBITAL -Q- MATRIX
 NUMBER OF CARTESIAN ATOMIC ORBITALS=        115
 NUMBER OF SPHERICAL CONTAMINANTS DROPPED=    13
 NUMBER OF LINEARLY DEPENDENT MOS DROPPED=     0
 TOTAL NUMBER OF MOS IN VARIATION SPACE=     102

 SYMMETRIES FOR INITIAL GUESS ORBITALS FOLLOW.  ALPHA SET(S).
     8 ORBITALS ARE OCCUPIED (    2 CORE ORBITALS).
     3=A        4=A        5=A        6=A        7=A        8=A        9=A   
    10=A       11=A       12=A       13=A       14=A       15=A       16=A   
    17=A       18=A   

 SYMMETRIES FOR INITIAL GUESS ORBITALS FOLLOW.   BETA SET(S).
     8 ORBITALS ARE OCCUPIED (    2 CORE ORBITALS).
     3=A        4=A        5=A        6=A        7=A        8=A        9=A   
    10=A       11=A       12=A       13=A       14=A       15=A       16=A   
    17=A       18=A   
 ...... END OF INITIAL ORBITAL SELECTION ......
 CPU     0: STEP CPU TIME=     0.02 TOTAL CPU TIME=          0.1 (      0.0 MIN)
 TOTAL WALL CLOCK TIME=          0.2 SECONDS, CPU UTILIZATION IS    40.00%

                    ----------------------
                    AO INTEGRAL TECHNOLOGY
                    ----------------------
     S,P,L SHELL ROTATED AXIS INTEGRALS, REPROGRAMMED BY
        KAZUYA ISHIMURA (IMS) AND JOSE SIERRA (SYNSTAR).
     S,P,D,L SHELL ROTATED AXIS INTEGRALS PROGRAMMED BY
        KAZUYA ISHIMURA (INSTITUTE FOR MOLECULAR SCIENCE).
     S,P,D,F,G SHELL TO TOTAL QUARTET ANGULAR MOMENTUM SUM 5,
        ERIC PROGRAM BY GRAHAM FLETCHER (ELORET AND NASA ADVANCED
        SUPERCOMPUTING DIVISION, AMES RESEARCH CENTER).
     S,P,D,F,G,L SHELL GENERAL RYS QUADRATURE PROGRAMMED BY
        MICHEL DUPUIS (PACIFIC NORTHWEST NATIONAL LABORATORY).

          --------------------
          2 ELECTRON INTEGRALS
          --------------------

 DIRECT SCF METHOD SKIPS INTEGRAL STORAGE ON DISK.
 DIRECT TRANSFORMATION SKIPS AO INTEGRAL STORAGE ON DISK.
  ...... END OF TWO-ELECTRON INTEGRALS .....
 CPU     0: STEP CPU TIME=     0.02 TOTAL CPU TIME=          0.1 (      0.0 MIN)
 TOTAL WALL CLOCK TIME=          0.2 SECONDS, CPU UTILIZATION IS    50.00%

          ---------------------------
              U-B3LYP SCF CALCULATION
          ---------------------------

     NUCLEAR ENERGY =        35.7480086784
     MAXIT =200     NPUNCH=  2     MULT=  1
     EXTRAP=T  DAMP=T  SHIFT=T  RSTRCT=F  DIIS=T  SOSCF=F
         DENSITY MATRIX CONVERGENCE THRESHOLD=  2.00E-05
     COARSE -> FINE DFT GRID SWITCH THRESHOLD=  3.00E-04 (SWITCH IN $DFT)
                   HF -> DFT SWITCH THRESHOLD=  5.00E-03 (SWOFF IN $DFT)
     MEMORY REQUIRED FOR UHF/ROHF ITERS=    418879 WORDS.

 DIRECT SCF CALCULATION, SCHWRZ=T   FDIFF=T
 SCHWARZ INEQUALITY OVERHEAD:      6670 INTEGRALS, T=        0.00

     EXCHANGE FUNCTIONAL   =B88&HFX   
     CORRELATION FUNCTIONAL=LYP88&VWN5
     DFT THRESHOLD         =.690E-08
 FOR AN EULER-MACLAURIN QUADRATURE USING  96 RADIAL POINTS:
 SMALLEST GAUSSIAN PRIMITIVE EXPONENT=        0.1027000000 OF TYPE -S-
 ON ATOM NUMBER   2 HAS RADIAL NORMALIZATION=  1.000000
  LARGEST GAUSSIAN PRIMITIVE EXPONENT=    15330.0000000000 OF TYPE -S-
 ON ATOM NUMBER   5 HAS RADIAL NORMALIZATION=  1.000000
 DFT IS SWITCHED OFF, PERFORMING PURE SCF UNTIL SWOFF THRESHOLD IS REACHED.

                                                                                                                NONZERO     BLOCKS
 ITER EX      TOTAL ENERGY        E CHANGE  DENSITY CHANGE    DIIS ERROR      VIR. SHIFT       DAMPING        INTEGRALS    SKIPPED
          * * *   INITIATING DIIS PROCEDURE   * * *
   1  0     -113.5591294790  -113.5591294790   0.441878723   0.381366437     0.000000000     1.000000000       21867797        181
   2  1     -114.0130151746    -0.4538856956   0.032505156   0.068036733     0.000000000     1.000000000       21870433        215
   3  2     -114.0382175266    -0.0252023520   0.015810840   0.022147359     0.000000000     1.000000000       21857174        595
   4  3     -114.0402828805    -0.0020653539   0.003300008   0.003694915     0.000000000     1.000000000       21799997       1355
 CONVERGED TO SWOFF, SO DFT CALCULATION IS NOW SWITCHED ON.
          * * *   INITIATING DIIS PROCEDURE   * * *
   5  4     -114.6021455495    -0.5618626689   0.033095767   0.054918217       21864578        235
   6  5     -114.6174338796    -0.0152883302   0.028145940   0.026354198       21843081        514
   7  6     -114.6127604650     0.0046734146   0.020956469   0.041361387       21814072        995
   8  7     -114.6206774035    -0.0079169384   0.003939686   0.009227056       21795591       1196
   9  8     -114.6209365769    -0.0002591734   0.000519940   0.001348286       21682870       2862
  10  9     -114.6209421737    -0.0000055968   0.000071253   0.000147855       21441020       5552
  11 10     -114.6209422577    -0.0000000840   0.000010321   0.000045604       20980326      11749
  12 11     -114.6209422635    -0.0000000057   0.000004373   0.000010610       20282679      20019

          -----------------
          DENSITY CONVERGED
          -----------------
     TIME TO FORM FOCK OPERATORS=       3.6 SECONDS (       0.3 SEC/ITER)
     FOCK TIME ON FIRST ITERATION=       0.2, LAST ITERATION=       0.3
     TIME TO SOLVE SCF EQUATIONS=       0.2 SECONDS (       0.0 SEC/ITER)

          ----------------------------
          DFT-D PARAMETERS AND RESULTS
          ----------------------------
 C6 COEFFICIENTS USED:
       2 C6 FOR ELEMENT   1
  Z=  1 CN= 0.912     C6(AA)=    3.03
  Z=  1 CN= 0.000     C6(AA)=    7.59
       5 C6 FOR ELEMENT   6
  Z=  6 CN= 0.000     C6(AA)=   49.11
  Z=  6 CN= 0.987     C6(AA)=   43.25
  Z=  6 CN= 1.998     C6(AA)=   29.36
  Z=  6 CN= 2.999     C6(AA)=   25.78
  Z=  6 CN= 3.984     C6(AA)=   18.21
       3 C6 FOR ELEMENT   8
  Z=  8 CN= 0.000     C6(AA)=   15.51
  Z=  8 CN= 0.993     C6(AA)=   12.82
  Z=  8 CN= 1.989     C6(AA)=   10.37

 #          XYZ [AU]             R0(AA) [ANG.]  CN         C6(AA)     C8(AA)   C10(AA) [AU]
  1  -3.77110   0.22262  -4.28131    6  1.455  3.894        18.5       534.3     18930.9
  2  -2.88915  -1.84699  -4.95131    1  1.091  0.957         3.1        37.6       557.4
  3  -2.11220   1.48082  -4.06778    1  1.091  0.993         3.1        37.4       553.9
  4  -4.99517  -0.21080  -2.63969    1  1.091  0.993         3.1        37.4       553.9
  5  -4.70262  -0.06335  -6.50085    8  1.241  1.045        12.8       257.8      6373.2

     MOLECULAR C6(AA) [AU] =       171.41

           DFT-D V3(BJ)
 
 FUNCTIONAL: B3LYP   
 
 PARAMETERS
 S6       :    1.0000
 RS6      :    1.2610
 S18      :    1.7030
 RS18     :    1.0000
 ALPHA6   :   14.0000
 ALPHA8   :   16.0000
 K1-K3    :   16.0000    1.3333    4.0000
 
 EDISP /KCAL,AU:    -0.3419 -0.00054480

 E6    /KCAL :    -0.0092
 E8    /KCAL :    -0.3327
 % E8        : 97.31

 FINAL U-B3LYP ENERGY IS     -114.6214870617 AFTER  12 ITERATIONS
 DFT EXCHANGE + CORRELATION ENERGY =       -11.8156200832
 TOTAL ELECTRON NUMBER             =        15.9999929786
 GRIMME'S DISPERSION ENERGY                     =       -0.0005447982
 ENERGY WITHOUT GRIMME'S DISPERSION CORRECTION IS     -114.6209422635

          --------------------
          SPIN SZ   =    0.000
          S-SQUARED =   -0.000
          --------------------

  ----- ALPHA SET ----- 

          ------------
          EIGENVECTORS
          ------------

                      1          2          3          4          5
                  -19.5686   -10.5974    -1.4185    -0.9790    -0.8223
                     A          A          A          A          A   
    1  C  1  S    0.000353   0.979707  -0.021418  -0.018923  -0.004179
    2  C  1  S    0.000798   0.012765   0.215413   0.388653   0.108655
    3  C  1  S    0.000018   0.049847   0.053818   0.103170   0.030202
    4  C  1  S   -0.001058   0.017660   0.022666   0.157946   0.077618
    5  C  1  X   -0.000099  -0.000218  -0.031839   0.043932  -0.063897
    6  C  1  Y    0.000026  -0.000593  -0.019306  -0.024060   0.175101
    7  C  1  Z   -0.000169  -0.001142  -0.087154   0.060230   0.077339
    8  C  1  X   -0.000543   0.000763  -0.025593   0.047972  -0.077877
    9  C  1  Y   -0.000264   0.000632  -0.022179  -0.035412   0.199507
   10  C  1  Z   -0.001409   0.002283  -0.077945   0.054886   0.077896
   11  C  1  X    0.000166   0.000691  -0.000669   0.018312  -0.024718
   12  C  1  Y    0.000051  -0.000422   0.000535  -0.011104   0.059128
   13  C  1  Z    0.000396   0.000892  -0.000724   0.023816   0.019710
   14  C  1 XX   -0.000118  -0.000021  -0.004910   0.001110   0.007986
   15  C  1 YY   -0.000222  -0.000726  -0.006617   0.003557  -0.009335
   16  C  1 ZZ    0.000340   0.000747   0.011527  -0.004668   0.001348
   17  C  1 XY    0.000031   0.001039   0.001773   0.001863   0.005147
   18  C  1 XZ    0.000284  -0.000093   0.008080  -0.006600   0.004192
   19  C  1 YZ    0.000066   0.000354   0.004750   0.001935  -0.014420
   20  C  1 XX   -0.000171   0.000825  -0.008405   0.000189   0.011261
   21  C  1 YY    0.000037  -0.001021  -0.004936   0.007663  -0.009345
   22  C  1 ZZ    0.000133   0.000197   0.013341  -0.007851  -0.001916
   23  C  1 XY   -0.000233   0.002389  -0.000649  -0.003094   0.000472
   24  C  1 XZ    0.000232  -0.001299   0.009423  -0.006598   0.007675
   25  C  1 YZ    0.000113  -0.000125   0.009408   0.002220  -0.023018
   26  C  1 XXX  -0.000148   0.000648   0.003069  -0.000176   0.001607
   27  C  1 YYY  -0.000020  -0.000153   0.000414  -0.000825  -0.002245
   28  C  1 ZZZ   0.000047  -0.000424  -0.002643   0.000492  -0.000061
   29  C  1 XXY  -0.000100   0.000899   0.002800   0.001696  -0.001510
   30  C  1 XXZ  -0.000042   0.000678   0.002631   0.001131  -0.003285
   31  C  1 YYX   0.000017   0.001363   0.003979   0.002798  -0.000360
   32  C  1 YYZ  -0.000022  -0.000109   0.000914  -0.001791   0.003367
   33  C  1 ZZX   0.000182  -0.002233  -0.008097  -0.002561  -0.001796
   34  C  1 ZZY   0.000128  -0.000694  -0.003355  -0.000590   0.004521
   35  C  1 XYZ  -0.000072   0.000657   0.001268   0.001607   0.001552
   36  H  2  S   -0.000228   0.000582   0.036484   0.080198  -0.130758
   37  H  2  S    0.000219  -0.002997   0.032880   0.110348  -0.223055
   38  H  2  S    0.000109  -0.001962   0.003035   0.004249  -0.044372
   39  H  2  X    0.000052   0.000107  -0.003580  -0.002476   0.006202
   40  H  2  Y   -0.000094  -0.000270   0.004740   0.007355  -0.009924
   41  H  2  Z   -0.000006  -0.000104  -0.001616   0.003709   0.000754
   42  H  2  X   -0.000140   0.000677  -0.002753  -0.004472   0.016029
   43  H  2  Y    0.000185  -0.001752   0.003461   0.014060  -0.022217
   44  H  2  Z   -0.000064  -0.000708  -0.001460   0.007618   0.006002
   45  H  2 XX   -0.000003   0.000338   0.000017  -0.001026   0.001265
   46  H  2 YY    0.000004  -0.000748   0.000532   0.001957  -0.002300
   47  H  2 ZZ   -0.000001   0.000410  -0.000549  -0.000931   0.001035
   48  H  2 XY   -0.000143   0.000656  -0.001541  -0.001492   0.004204
   49  H  2 XZ    0.000135   0.000192   0.000826  -0.000678  -0.001596
   50  H  2 YZ   -0.000102  -0.000503  -0.000852   0.001704  -0.000255
   51  H  3  S    0.000115   0.000056   0.012714   0.085823   0.060953
   52  H  3  S    0.000471  -0.009844   0.008244   0.105901   0.083948
   53  H  3  S   -0.000025  -0.002623  -0.000573   0.005042   0.014806
   54  H  3  X   -0.000067   0.000998  -0.000172  -0.006848  -0.006968
   55  H  3  Y   -0.000077   0.000711  -0.000066  -0.006275  -0.001160
   56  H  3  Z    0.000011   0.000121  -0.000769  -0.000044   0.000295
   57  H  3  X   -0.000058   0.004029   0.002413  -0.009771  -0.013056
   58  H  3  Y   -0.000084   0.003174   0.000807  -0.010141   0.000682
   59  H  3  Z    0.000034   0.000551  -0.003813   0.000174   0.003474
   60  H  3 XX    0.000003  -0.000810  -0.000511   0.000882   0.002710
   61  H  3 YY    0.000062  -0.000079  -0.000220   0.000525  -0.001512
   62  H  3 ZZ   -0.000065   0.000889   0.000731  -0.001407  -0.001198
   63  H  3 XY   -0.000000  -0.001356  -0.000505   0.002369   0.001226
   64  H  3 XZ   -0.000071  -0.000206   0.000971  -0.000045  -0.000214
   65  H  3 YZ   -0.000028  -0.000149   0.000639   0.000086  -0.000554
   66  H  4  S    0.000115   0.000057   0.012713   0.085831   0.060572
   67  H  4  S    0.000472  -0.009840   0.008254   0.105968   0.083438
   68  H  4  S   -0.000025  -0.002621  -0.000569   0.005054   0.014755
   69  H  4  X    0.000081  -0.000707  -0.000386   0.006373   0.002821
   70  H  4  Y    0.000010  -0.000289  -0.000191   0.001481   0.004589
   71  H  4  Z   -0.000062   0.000965  -0.000662  -0.006595  -0.004526
   72  H  4  X    0.000098  -0.003039  -0.003591   0.010136   0.005017
   73  H  4  Y    0.000008  -0.000974  -0.002716   0.001542   0.011298
   74  H  4  Z   -0.000043   0.004050  -0.000841  -0.009697  -0.005447
   75  H  4 XX    0.000051  -0.000023  -0.000815   0.000525  -0.000198
   76  H  4 YY    0.000036   0.000677  -0.000110  -0.001205  -0.000151
   77  H  4 ZZ   -0.000087  -0.000654   0.000925   0.000680   0.000349
   78  H  4 XY   -0.000010  -0.000345  -0.000500   0.000548   0.001574
   79  H  4 XZ   -0.000059   0.001368   0.000830  -0.002377  -0.001189
   80  H  4 YZ   -0.000000   0.000538   0.000451  -0.000501  -0.002277
   81  O  5  S    0.970599  -0.000216  -0.014359   0.000992   0.000491
   82  O  5  S   -0.004288  -0.000069   0.464400  -0.273501   0.047798
   83  O  5  S    0.051214   0.000638   0.134924  -0.084378   0.015598
   84  O  5  S    0.002465  -0.005503   0.239310  -0.230472   0.040439
   85  O  5  X    0.000719   0.000233   0.037021   0.048806  -0.109436
   86  O  5  Y    0.000085   0.000091   0.005324  -0.009735   0.183015
   87  O  5  Z    0.001553   0.000579   0.081058   0.087024  -0.005015
   88  O  5  X   -0.000621  -0.000889   0.045147   0.055139  -0.134408
   89  O  5  Y   -0.000086  -0.000343   0.004947  -0.013200   0.226087
   90  O  5  Z   -0.001356  -0.002201   0.097017   0.095705  -0.004579
   91  O  5  X   -0.000042  -0.000689   0.012984   0.021986  -0.071773
   92  O  5  Y    0.000072  -0.000388  -0.000045  -0.002457   0.120877
   93  O  5  Z    0.000000  -0.001850   0.026161   0.041473  -0.002233
   94  O  5 XX   -0.000069  -0.000013  -0.002084  -0.000371  -0.001921
   95  O  5 YY   -0.000076  -0.000031  -0.002525  -0.002215   0.001185
   96  O  5 ZZ    0.000146   0.000045   0.004609   0.002585   0.000736
   97  O  5 XY   -0.000047   0.000017  -0.000861   0.000341   0.002694
   98  O  5 XZ    0.000163   0.000027   0.004641   0.002554  -0.003489
   99  O  5 YZ    0.000024   0.000013   0.000979  -0.000574   0.005774
  100  O  5 XX    0.000190   0.000600  -0.005199  -0.000264  -0.006638
  101  O  5 YY    0.000258   0.001045  -0.004940  -0.005663   0.002745
  102  O  5 ZZ   -0.000448  -0.001644   0.010140   0.005927   0.003893
  103  O  5 XY    0.000097  -0.000279  -0.004562   0.001636   0.010525
  104  O  5 XZ   -0.000476  -0.001222   0.012223   0.005575  -0.011563
  105  O  5 YZ   -0.000058  -0.000478   0.001491  -0.001943   0.020002
  106  O  5 XXX   0.000062   0.000367  -0.002299  -0.000985   0.002138
  107  O  5 YYY   0.000012   0.000142  -0.000292   0.000589  -0.002112
  108  O  5 ZZZ  -0.000056  -0.000418   0.001737  -0.000005   0.001221
  109  O  5 XXY   0.000009   0.000064  -0.000670  -0.000462   0.000366
  110  O  5 XXZ   0.000009   0.000151  -0.000420   0.000399  -0.002571
  111  O  5 YYX   0.000018   0.000180  -0.000674  -0.000174  -0.001532
  112  O  5 YYZ   0.000065   0.000409  -0.001910  -0.000392   0.000933
  113  O  5 ZZX  -0.000101  -0.000673   0.003759   0.001496  -0.001336
  114  O  5 ZZY  -0.000024  -0.000254   0.001061  -0.000327   0.002468
  115  O  5 XYZ  -0.000002  -0.000094  -0.000328  -0.001052   0.003047

                      6          7          8          9         10
                   -0.8143    -0.7892    -0.6237    -0.5039    -0.2634
                     A          A          A          A          A   
    1  C  1  S    0.000008   0.000757   0.000001   0.001504  -0.003632
    2  C  1  S   -0.000152  -0.001901  -0.000009  -0.022843  -0.096623
    3  C  1  S   -0.000042   0.005407  -0.000004  -0.009377  -0.031605
    4  C  1  S   -0.000113  -0.091105   0.000033   0.033296  -0.528054
    5  C  1  X    0.194669  -0.099928  -0.110886   0.068601  -0.140621
    6  C  1  Y    0.113866   0.009965  -0.065065  -0.130381   0.212441
    7  C  1  Z   -0.096534  -0.189837   0.054914  -0.015992  -0.032253
    8  C  1  X    0.215124  -0.109708  -0.115440   0.084162  -0.206172
    9  C  1  Y    0.125811   0.017005  -0.067731  -0.157594   0.298226
   10  C  1  Z   -0.106660  -0.201198   0.057186  -0.016819  -0.062948
   11  C  1  X    0.077301  -0.021156  -0.041434   0.049941  -0.380387
   12  C  1  Y    0.045221   0.012317  -0.024319  -0.095536   0.540368
   13  C  1  Z   -0.038314  -0.028056   0.020521  -0.012308  -0.127972
   14  C  1 XX   -0.001811  -0.004390  -0.011590   0.001932  -0.001029
   15  C  1 YY    0.000447  -0.007292  -0.004090   0.008444   0.013474
   16  C  1 ZZ    0.001365   0.011682   0.015680  -0.010377  -0.012445
   17  C  1 XY   -0.000191  -0.001623  -0.007951  -0.014743  -0.009094
   18  C  1 XZ   -0.001083   0.012059  -0.014963   0.003165  -0.007691
   19  C  1 YZ   -0.001118   0.000961  -0.008734  -0.008765   0.003274
   20  C  1 XX   -0.006075  -0.004599  -0.020711   0.008696  -0.006097
   21  C  1 YY   -0.006055  -0.004620  -0.002280   0.005643   0.020618
   22  C  1 ZZ    0.012131   0.009220   0.022991  -0.014339  -0.014521
   23  C  1 XY   -0.008028  -0.002234  -0.009249  -0.017048  -0.026326
   24  C  1 XZ   -0.012406   0.009375  -0.020884   0.006820   0.001658
   25  C  1 YZ   -0.005296   0.002520  -0.014605  -0.022764   0.002669
   26  C  1 XXX  -0.001126   0.002321  -0.001446  -0.000908  -0.001241
   27  C  1 YYY   0.000436   0.000320  -0.002745  -0.004148  -0.001740
   28  C  1 ZZZ  -0.004573  -0.000994  -0.006085   0.002389   0.001865
   29  C  1 XXY  -0.001606   0.001091   0.001669  -0.000083  -0.001287
   30  C  1 XXZ   0.004655   0.000352   0.005697  -0.002604  -0.002317
   31  C  1 YYX  -0.000439  -0.000372  -0.000891   0.003207  -0.000816
   32  C  1 YYZ   0.001480   0.000982   0.002466  -0.000601  -0.000185
   33  C  1 ZZX   0.001949  -0.002742   0.002831  -0.001989   0.002481
   34  C  1 ZZY   0.001021  -0.001521   0.002014   0.005649   0.003621
   35  C  1 XYZ   0.003486   0.000794   0.002646   0.003698   0.000913
   36  H  2  S    0.000203  -0.033508   0.000003   0.143673   0.132862
   37  H  2  S    0.000339  -0.058489  -0.000002   0.296665   0.389306
   38  H  2  S    0.000059  -0.023550  -0.000005   0.135458   1.046495
   39  H  2  X    0.003392  -0.001219  -0.000527   0.001037   0.003977
   40  H  2  Y    0.002012  -0.000059  -0.000310   0.004825  -0.012704
   41  H  2  Z   -0.001687  -0.002528   0.000263   0.007805  -0.007011
   42  H  2  X    0.012995   0.001677  -0.002228   0.006343  -0.003362
   43  H  2  Y    0.007666  -0.004210  -0.001308   0.015514  -0.015345
   44  H  2  Z   -0.006460  -0.001590   0.001118   0.031165  -0.024940
   45  H  2 XX   -0.002284   0.000821  -0.001843  -0.001746   0.001099
   46  H  2 YY    0.002166   0.000787  -0.000048   0.003344  -0.000989
   47  H  2 ZZ    0.000118  -0.001608   0.001891  -0.001598  -0.000109
   48  H  2 XY    0.001349  -0.000624  -0.000671  -0.000892   0.000037
   49  H  2 XZ    0.000514  -0.000634  -0.001679  -0.002770   0.000857
   50  H  2 YZ   -0.001137  -0.001243  -0.001267   0.004151  -0.002299
   51  H  3  S    0.110423  -0.057587  -0.107710  -0.040600  -0.016434
   52  H  3  S    0.154397  -0.071640  -0.187002  -0.084373   0.010161
   53  H  3  S    0.018714  -0.016262  -0.069212  -0.038147   0.037111
   54  H  3  X   -0.008630   0.004133   0.006223   0.004368  -0.003708
   55  H  3  Y   -0.006923   0.004737   0.004918  -0.001147   0.008158
   56  H  3  Z   -0.004337  -0.001717   0.000852  -0.000362  -0.002511
   57  H  3  X   -0.009642   0.002669   0.009732   0.013243  -0.020515
   58  H  3  Y   -0.009980   0.005967   0.011094  -0.006008   0.006426
   59  H  3  Z   -0.004023  -0.007936   0.004034  -0.001966  -0.009978
   60  H  3 XX    0.001240  -0.000259  -0.001082  -0.002187   0.003277
   61  H  3 YY    0.000488  -0.001192  -0.000682   0.002102  -0.002341
   62  H  3 ZZ   -0.001728   0.001452   0.001764   0.000085  -0.000937
   63  H  3 XY    0.002621  -0.001280  -0.002055  -0.000733  -0.001428
   64  H  3 XZ    0.002150   0.001802  -0.000246   0.000094   0.000513
   65  H  3 YZ    0.001700   0.001070  -0.000259   0.000209   0.001214
   66  H  4  S   -0.110633  -0.057549   0.107705  -0.040631  -0.016466
   67  H  4  S   -0.154700  -0.071618   0.186960  -0.084449   0.010083
   68  H  4  S   -0.018777  -0.016267   0.069210  -0.038215   0.037069
   69  H  4  X   -0.004647  -0.005632   0.004705  -0.000506  -0.006631
   70  H  4  Y   -0.000879  -0.000993   0.001493  -0.004007   0.006441
   71  H  4  Z    0.010923   0.003119  -0.006265   0.002054  -0.001061
   72  H  4  X   -0.007373  -0.010047   0.008180  -0.000211  -0.005673
   73  H  4  Y   -0.000024  -0.001495  -0.000586  -0.013907   0.015122
   74  H  4  Z    0.012464  -0.001634  -0.012899   0.004707  -0.017336
   75  H  4 XX    0.001411  -0.001881   0.000162   0.000599  -0.003004
   76  H  4 YY    0.001695   0.000140  -0.000938   0.000057   0.002140
   77  H  4 ZZ   -0.003105   0.001741   0.000776  -0.000656   0.000864
   78  H  4 XY    0.000418  -0.000519   0.000147  -0.001802   0.000852
   79  H  4 XZ    0.002730   0.001928  -0.002451   0.000162   0.000212
   80  H  4 YZ    0.000552   0.000224  -0.000688   0.001712  -0.002198
   81  O  5  S   -0.000001   0.000451  -0.000001   0.000650  -0.004662
   82  O  5  S   -0.000121  -0.152642   0.000002  -0.022603  -0.115680
   83  O  5  S   -0.000039  -0.049610   0.000001  -0.007732  -0.039314
   84  O  5  S   -0.000126  -0.172410   0.000007  -0.049330  -0.249686
   85  O  5  X    0.161607   0.082662   0.268536  -0.171522  -0.007699
   86  O  5  Y    0.094381   0.095643   0.157584   0.274894  -0.025598
   87  O  5  Z   -0.079867   0.280313  -0.133000  -0.020670  -0.045921
   88  O  5  X    0.192952   0.094553   0.317580  -0.208523  -0.015168
   89  O  5  Y    0.112669   0.115019   0.186370   0.332309  -0.028057
   90  O  5  Z   -0.095362   0.327297  -0.157289  -0.027366  -0.063912
   91  O  5  X    0.101330   0.048383   0.231967  -0.173723   0.013940
   92  O  5  Y    0.059150   0.066605   0.136118   0.281094  -0.077940
   93  O  5  Z   -0.050080   0.176668  -0.114877  -0.017775  -0.064249
   94  O  5 XX    0.003888  -0.003238   0.001675  -0.000082  -0.001391
   95  O  5 YY    0.000580  -0.004978   0.000233   0.000980   0.002221
   96  O  5 ZZ   -0.004468   0.008216  -0.001909  -0.000899  -0.000830
   97  O  5 XY    0.001886   0.001815   0.000798  -0.000283  -0.000122
   98  O  5 XZ    0.004105   0.005467   0.001745  -0.000926  -0.002226
   99  O  5 YZ    0.002763   0.003230   0.001192   0.000535   0.003471
  100  O  5 XX    0.012068  -0.008891   0.008753  -0.001790  -0.003485
  101  O  5 YY    0.000746  -0.014239  -0.001811   0.004013   0.014850
  102  O  5 ZZ   -0.012814   0.023129  -0.006942  -0.002223  -0.011365
  103  O  5 XY    0.004806   0.007025   0.001183   0.000362  -0.007261
  104  O  5 XZ    0.011511   0.013740   0.005596  -0.004811  -0.010436
  105  O  5 YZ    0.008357   0.010047   0.005635   0.005589   0.009332
  106  O  5 XXX  -0.000189  -0.002337   0.000502   0.001884   0.000409
  107  O  5 YYY   0.000459  -0.000597   0.002202   0.000413  -0.001259
  108  O  5 ZZZ  -0.003356   0.002182  -0.000849  -0.000299  -0.000839
  109  O  5 XXY  -0.001930  -0.001353  -0.003416   0.000181  -0.000955
  110  O  5 XXZ   0.004134  -0.001462   0.001984  -0.000668  -0.001124
  111  O  5 YYX  -0.000754  -0.001902  -0.000403  -0.002508   0.002008
  112  O  5 YYZ   0.000369  -0.001465  -0.000845   0.001069   0.002250
  113  O  5 ZZX   0.001007   0.005037  -0.000271  -0.000019  -0.002556
  114  O  5 ZZY   0.001315   0.002154   0.000462  -0.000734   0.002644
  115  O  5 XYZ   0.002450  -0.000293   0.001710   0.000350   0.000342

                     11         12         13         14         15
                   -0.1755    -0.1182    -0.1131    -0.0319     0.0309
                     A          A          A          A          A   
    1  C  1  S    0.014079  -0.000006  -0.002339   0.012363   0.000019
    2  C  1  S    0.319998   0.000076  -0.109900  -0.026511   0.000051
    3  C  1  S    0.099402   0.000007  -0.017162   0.000330   0.000005
    4  C  1  S    1.742424   0.000688  -1.023850  -0.173462   0.000916
    5  C  1  X   -0.001543  -0.201898  -0.002700   0.027988  -0.036688
    6  C  1  Y    0.074892  -0.118592   0.088484  -0.083834  -0.021596
    7  C  1  Z    0.085775   0.099849   0.100245  -0.042822   0.018201
    8  C  1  X   -0.000057  -0.267631   0.058582   0.085147   0.292611
    9  C  1  Y    0.101714  -0.157257   0.180910  -0.030097   0.171770
   10  C  1  Z    0.120406   0.132067   0.333823   0.136041  -0.144930
   11  C  1  X   -0.025549  -0.806885   0.489250  -0.221757   1.858580
   12  C  1  Y    0.314448  -0.473800   0.442709   1.022825   1.091015
   13  C  1  Z    0.320952   0.397280   1.515581   0.763333  -0.920882
   14  C  1 XX   -0.004570   0.000376  -0.011859  -0.016692   0.000477
   15  C  1 YY    0.011433   0.005912  -0.010814   0.017093  -0.009688
   16  C  1 ZZ   -0.006862  -0.006287   0.022673  -0.000400   0.009210
   17  C  1 XY   -0.013464   0.005936  -0.005071  -0.018396  -0.009371
   18  C  1 XZ    0.000209   0.007163   0.022163   0.001692  -0.010870
   19  C  1 YZ    0.004177   0.001395   0.007691   0.022829  -0.001579
   20  C  1 XX    0.002245   0.013805   0.059468   0.120191   0.229544
   21  C  1 YY    0.008558   0.039534   0.027578  -0.068365   0.038624
   22  C  1 ZZ   -0.010803  -0.053339  -0.087046  -0.051826  -0.268168
   23  C  1 XY   -0.010663   0.043595   0.012223   0.150547   0.115965
   24  C  1 XZ   -0.000991   0.058384  -0.064648  -0.098154   0.247116
   25  C  1 YZ   -0.006068   0.017348  -0.065497  -0.116054   0.164536
   26  C  1 XXX   0.000067  -0.001178  -0.005083   0.011627  -0.014872
   27  C  1 YYY  -0.001286  -0.004612  -0.004034   0.004733  -0.020567
   28  C  1 ZZZ   0.000940  -0.000579   0.006810  -0.003936  -0.003385
   29  C  1 XXY  -0.000222   0.006176   0.001469   0.005774   0.035988
   30  C  1 XXZ  -0.001351  -0.001317  -0.001262   0.002580  -0.015280
   31  C  1 YYX  -0.000173   0.000281   0.001854  -0.008824   0.007725
   32  C  1 YYZ   0.000090   0.002094  -0.007875   0.002701   0.019822
   33  C  1 ZZX   0.000084   0.001299   0.004965  -0.006774   0.012227
   34  C  1 ZZY   0.001947   0.000012   0.003944  -0.012124  -0.008394
   35  C  1 XYZ   0.001240  -0.002061   0.004455   0.002089  -0.005856
   36  H  2  S    0.036413  -0.000003   0.000733   0.070058  -0.000056
   37  H  2  S    0.155210  -0.000035   0.004592   1.084281   0.000023
   38  H  2  S   -0.118336  -0.001592   1.098213  -0.616686   0.000491
   39  H  2  X   -0.002538  -0.004759   0.006981  -0.010964   0.004714
   40  H  2  Y    0.007078  -0.002770  -0.010640   0.021230   0.002762
   41  H  2  Z    0.003255   0.002349   0.001519   0.003006  -0.002335
   42  H  2  X   -0.005134  -0.004448   0.002059  -0.070257   0.154687
   43  H  2  Y    0.001288  -0.002572  -0.025682   0.131477   0.090891
   44  H  2  Z   -0.008837   0.002236  -0.026299   0.013763  -0.076573
   45  H  2 XX   -0.001360   0.001356   0.000626  -0.004069  -0.007874
   46  H  2 YY    0.001558  -0.001306  -0.002226   0.009164   0.003565
   47  H  2 ZZ   -0.000198  -0.000050   0.001600  -0.005094   0.004309
   48  H  2 XY   -0.001974  -0.000826  -0.002150  -0.011774   0.000830
   49  H  2 XZ    0.000390  -0.000338   0.004675   0.001249  -0.002779
   50  H  2 YZ    0.001608   0.000676  -0.004000   0.003226  -0.004674
   51  H  3  S   -0.060198   0.038825  -0.022208  -0.034796  -0.053692
   52  H  3  S   -0.197928   0.030601  -0.228447  -0.563673  -1.325383
   53  H  3  S   -1.176414   1.668223  -0.384282   0.279083  -0.806482
   54  H  3  X   -0.015328   0.015566   0.001844   0.005704   0.015751
   55  H  3  Y   -0.007667   0.013636   0.000301   0.016958   0.015209
   56  H  3  Z    0.001247   0.007722   0.013439   0.005260  -0.001915
   57  H  3  X    0.000557   0.015054   0.023765   0.053416   0.255767
   58  H  3  Y    0.019118   0.011864   0.024062   0.058149   0.104743
   59  H  3  Z    0.007607  -0.007975   0.059512   0.080132  -0.056430
   60  H  3 XX    0.002292  -0.000875  -0.000931   0.000616  -0.011628
   61  H  3 YY   -0.000836  -0.000127  -0.002320  -0.000569  -0.004166
   62  H  3 ZZ   -0.001456   0.001003   0.003251  -0.000047   0.015794
   63  H  3 XY   -0.000176  -0.001353  -0.002307  -0.008010  -0.018704
   64  H  3 XZ   -0.000897  -0.000431  -0.005023  -0.006951  -0.001266
   65  H  3 YZ   -0.000594  -0.000477  -0.004786  -0.002126   0.002790
   66  H  4  S   -0.060234  -0.038755  -0.022307  -0.034820   0.053634
   67  H  4  S   -0.197774  -0.029857  -0.228509  -0.563662   1.324613
   68  H  4  S   -1.176785  -1.666394  -0.388907   0.279608   0.806234
   69  H  4  X    0.010399   0.009248   0.007700  -0.010718   0.016469
   70  H  4  Y    0.007426   0.000926   0.003721   0.007321   0.003702
   71  H  4  Z   -0.011502  -0.020048   0.010492   0.013394  -0.014047
   72  H  4  X   -0.009460   0.017609   0.013252  -0.006733   0.178513
   73  H  4  Y    0.013218   0.007274   0.017900   0.022810   0.150097
   74  H  4  Z    0.012519  -0.008418   0.064772   0.109928  -0.158553
   75  H  4 XX   -0.000203  -0.000327   0.004390   0.000701   0.004955
   76  H  4 YY    0.001114  -0.000633   0.001485   0.008438  -0.009577
   77  H  4 ZZ   -0.000911   0.000960  -0.005876  -0.009139   0.004622
   78  H  4 XY    0.000904   0.000202   0.003241   0.000883   0.002907
   79  H  4 XZ   -0.000822  -0.001509   0.004087   0.003617  -0.020627
   80  H  4 YZ   -0.001917  -0.000487  -0.000402  -0.000294  -0.010052
   81  O  5  S    0.001890   0.000018  -0.015562  -0.001729   0.000004
   82  O  5  S   -0.020729  -0.000185   0.141127   0.010126  -0.000049
   83  O  5  S   -0.008326  -0.000071   0.054018   0.001426  -0.000014
   84  O  5  S   -0.077932  -0.001724   1.408937   0.578994  -0.000635
   85  O  5  X   -0.014918   0.046450   0.039640  -0.006648  -0.111752
   86  O  5  Y   -0.027602   0.027249   0.024039  -0.012317  -0.065570
   87  O  5  Z   -0.062872  -0.023170   0.108315  -0.028034   0.055381
   88  O  5  X   -0.019301   0.043994   0.086370   0.020402  -0.123006
   89  O  5  Y   -0.028102   0.025841   0.024918  -0.022431  -0.072163
   90  O  5  Z   -0.072330  -0.022096   0.203725   0.014588   0.060939
   91  O  5  X   -0.008612   0.182585   0.188031   0.087204  -0.156918
   92  O  5  Y   -0.090434   0.107158   0.092205  -0.111782  -0.092116
   93  O  5  Z   -0.124574  -0.091118   0.488074   0.043829   0.077389
   94  O  5 XX   -0.001126  -0.004006  -0.000078   0.000318  -0.000494
   95  O  5 YY    0.000048  -0.000326   0.003073   0.000267  -0.000100
   96  O  5 ZZ    0.001078   0.004331  -0.002995  -0.000585   0.000594
   97  O  5 XY   -0.000043  -0.001672  -0.001233  -0.001239  -0.000264
   98  O  5 XZ    0.000331  -0.003896  -0.002632   0.000773  -0.000549
   99  O  5 YZ    0.001743  -0.002805   0.001129  -0.001257  -0.000355
  100  O  5 XX   -0.005754  -0.007180  -0.016113  -0.003289   0.036023
  101  O  5 YY    0.002909   0.002633  -0.011194   0.002559  -0.017883
  102  O  5 ZZ    0.002845   0.004546   0.027307   0.000729  -0.018140
  103  O  5 XY   -0.008169   0.000154  -0.005379  -0.029898  -0.005431
  104  O  5 XZ    0.006078  -0.003305   0.024229   0.026852   0.010793
  105  O  5 YZ    0.004590  -0.004426   0.013791  -0.015849   0.021095
  106  O  5 XXX  -0.000514   0.000108  -0.002244  -0.001134   0.000783
  107  O  5 YYY  -0.000232   0.001051  -0.000801   0.001809  -0.000358
  108  O  5 ZZZ  -0.000031   0.002110   0.001871  -0.001192  -0.000115
  109  O  5 XXY  -0.000658  -0.000325  -0.001250  -0.001613  -0.000354
  110  O  5 XXZ  -0.000383  -0.002392  -0.001300   0.000597   0.000935
  111  O  5 YYX   0.000333   0.000593  -0.000918  -0.001050  -0.000602
  112  O  5 YYZ   0.000424  -0.000439  -0.001211   0.001002  -0.000781
  113  O  5 ZZX   0.000357  -0.000738   0.003928   0.002572  -0.000449
  114  O  5 ZZY   0.000969  -0.001085   0.002324  -0.000814   0.000834
  115  O  5 XYZ  -0.000352  -0.000744  -0.000159  -0.003059  -0.000372

                     16         17         18         19         20
                    0.0736     0.1161     0.1575     0.1768     0.2098
                     A          A          A          A          A   
    1  C  1  S    0.008492   0.017187  -0.039489   0.000012  -0.000003
    2  C  1  S    0.069078   0.339224  -0.162673   0.000082   0.000155
    3  C  1  S    0.021461   0.129427  -0.143811   0.000082   0.000095
    4  C  1  S    0.017667  -0.166703   2.511603  -0.001952  -0.002605
    5  C  1  X    0.159983  -0.109980   0.005007  -0.207088   0.120181
    6  C  1  Y   -0.163832   0.012381   0.191836  -0.121530   0.070570
    7  C  1  Z    0.128930  -0.207274   0.237400   0.102661  -0.059430
    8  C  1  X    0.086048  -0.247882  -0.020399   0.221928   0.230991
    9  C  1  Y   -0.155998   0.084605   0.155347   0.130315   0.135619
   10  C  1  Z   -0.010576  -0.400089   0.142919  -0.109861  -0.114542
   11  C  1  X   -0.852996   0.429658   0.302246   2.459119  -0.173190
   12  C  1  Y    1.142929  -0.321735  -1.874059   1.443237  -0.101897
   13  C  1  Z   -0.366053   0.486803  -1.608202  -1.218439   0.084985
   14  C  1 XX   -0.007607  -0.000494  -0.002849   0.001307  -0.021372
   15  C  1 YY   -0.009406   0.008310  -0.006459   0.022359   0.005711
   16  C  1 ZZ    0.017013  -0.007816   0.009308  -0.023667   0.015661
   17  C  1 XY   -0.004252  -0.015708  -0.005560   0.022439  -0.001642
   18  C  1 XZ    0.018256   0.005018   0.014372   0.027212  -0.012133
   19  C  1 YZ    0.002626  -0.005793  -0.003848   0.005285  -0.013496
   20  C  1 XX   -0.006727   0.059839  -0.202396   0.176902  -0.217084
   21  C  1 YY   -0.326304   0.147439   0.063227   0.269304   0.198063
   22  C  1 ZZ    0.333031  -0.207278   0.139169  -0.446205   0.019021
   23  C  1 XY    0.154982  -0.117403  -0.222355   0.324936   0.121067
   24  C  1 XZ    0.259172  -0.088937   0.199805   0.469702   0.040199
   25  C  1 YZ   -0.079491  -0.087728   0.186044   0.173921  -0.109393
   26  C  1 XXX   0.028654  -0.015299   0.002027  -0.008951   0.001357
   27  C  1 YYY   0.022843  -0.000895  -0.006391  -0.027138  -0.000515
   28  C  1 ZZZ  -0.034186   0.013773  -0.008300  -0.000619  -0.006075
   29  C  1 XXY  -0.006957  -0.004041   0.013074   0.039429  -0.003515
   30  C  1 XXZ   0.005713  -0.003430   0.014314  -0.013403   0.009100
   31  C  1 YYX  -0.017576  -0.010251   0.041553   0.003813  -0.002676
   32  C  1 YYZ   0.040151  -0.015049  -0.003179   0.014233  -0.000949
   33  C  1 ZZX  -0.020867   0.030777  -0.044273   0.008196   0.000856
   34  C  1 ZZY  -0.023690   0.005242  -0.004500  -0.003020   0.004206
   35  C  1 XYZ  -0.023008  -0.001993   0.009313  -0.013267   0.003139
   36  H  2  S   -0.153136  -0.066047   0.078780  -0.000024  -0.000012
   37  H  2  S   -0.079356  -0.472486  -0.450290   0.000320   0.000136
   38  H  2  S    1.790048   0.097904  -2.447735   0.000387  -0.000198
   39  H  2  X    0.005058   0.002112   0.001022   0.015613   0.015960
   40  H  2  Y   -0.009781  -0.002750   0.000624   0.009160   0.009358
   41  H  2  Z   -0.001355   0.001019   0.002826  -0.007734  -0.007910
   42  H  2  X   -0.161245  -0.005785   0.158867  -0.222116  -0.242810
   43  H  2  Y    0.387881   0.106144  -0.344704  -0.130109  -0.142369
   44  H  2  Z    0.133836   0.113931  -0.087677   0.110068   0.120399
   45  H  2 XX   -0.011367  -0.000230   0.007308  -0.000388  -0.003152
   46  H  2 YY    0.018909   0.004636  -0.026785  -0.006430   0.000713
   47  H  2 ZZ   -0.007543  -0.004406   0.019477   0.006817   0.002439
   48  H  2 XY   -0.017030  -0.007779   0.020500  -0.006475  -0.000365
   49  H  2 XZ   -0.003563   0.001837   0.011311  -0.007849  -0.001942
   50  H  2 YZ    0.016759  -0.002577  -0.012832  -0.001513  -0.002008
   51  H  3  S   -0.055500  -0.090213  -0.069700   0.112700  -0.061470
   52  H  3  S   -0.265438  -0.461847  -0.529072  -0.673865  -0.527898
   53  H  3  S   -0.096869   0.444020   0.909949  -2.674903   0.730478
   54  H  3  X   -0.002447   0.006570   0.016279   0.008031   0.016155
   55  H  3  Y    0.008109   0.002112   0.002860  -0.005187  -0.009891
   56  H  3  Z   -0.001568   0.003245  -0.006403  -0.002454   0.008577
   57  H  3  X   -0.021076  -0.118182  -0.066662   0.376053  -0.214306
   58  H  3  Y   -0.105313  -0.101812  -0.013900   0.469047   0.195617
   59  H  3  Z    0.033443  -0.047629   0.070919   0.041476  -0.202897
   60  H  3 XX    0.002569   0.003602  -0.005006  -0.014679  -0.001752
   61  H  3 YY    0.003869   0.000293  -0.002306  -0.009609  -0.003647
   62  H  3 ZZ   -0.006438  -0.003894   0.007312   0.024289   0.005399
   63  H  3 XY    0.001231   0.009119  -0.004822  -0.029999   0.003306
   64  H  3 XZ   -0.001804   0.000960   0.000400  -0.005880   0.007556
   65  H  3 YZ    0.001596  -0.001427  -0.003742  -0.006079   0.002473
   66  H  4  S   -0.055535  -0.090256  -0.069734  -0.112762   0.061319
   67  H  4  S   -0.266630  -0.462276  -0.529576   0.674404   0.528646
   68  H  4  S   -0.097735   0.444289   0.909918   2.675843  -0.728162
   69  H  4  X   -0.006341  -0.001234  -0.010300  -0.000228  -0.008476
   70  H  4  Y    0.005822  -0.002474  -0.012742   0.009769   0.014398
   71  H  4  Z    0.000368   0.007113   0.006771  -0.001416  -0.012383
   72  H  4  X    0.103800   0.075940   0.071525   0.417737   0.216007
   73  H  4  Y   -0.032051   0.012179   0.067398  -0.003387  -0.194835
   74  H  4  Z   -0.028352  -0.143866   0.002260  -0.434834   0.201629
   75  H  4 XX   -0.000586   0.002767   0.002523   0.000202   0.002989
   76  H  4 YY    0.002314  -0.006037  -0.000535  -0.014482   0.006422
   77  H  4 ZZ   -0.001728   0.003270  -0.001988   0.014280  -0.009411
   78  H  4 XY   -0.001378   0.002613  -0.000517   0.001411  -0.000122
   79  H  4 XZ   -0.006376  -0.007147   0.009100  -0.034950  -0.003245
   80  H  4 YZ   -0.000853  -0.003247   0.001754  -0.008561  -0.001085
   81  O  5  S    0.011131  -0.012111   0.006760  -0.000006  -0.000014
   82  O  5  S   -0.016023  -0.151323   0.012197   0.000017  -0.000024
   83  O  5  S    0.001124  -0.053648   0.012437   0.000008  -0.000003
   84  O  5  S   -1.166729   0.204722  -1.310721   0.000188  -0.000021
   85  O  5  X    0.067452  -0.031930   0.072648  -0.029872  -0.090562
   86  O  5  Y   -0.011644  -0.087636  -0.023949  -0.017506  -0.053176
   87  O  5  Z    0.122236  -0.168367   0.118202   0.014815   0.044868
   88  O  5  X    0.068174   0.012047   0.060562  -0.044662  -0.174221
   89  O  5  Y   -0.046084  -0.138464  -0.056942  -0.026147  -0.102284
   90  O  5  Z    0.082858  -0.139849   0.054656   0.022133   0.086289
   91  O  5  X   -0.211892  -0.180699  -0.179306   0.040683   0.154027
   92  O  5  Y   -0.069585   0.070424   0.054400   0.023709   0.090376
   93  O  5  Z   -0.510341  -0.281456  -0.297597  -0.019917  -0.076257
   94  O  5 XX   -0.000724  -0.004350   0.001884  -0.006556  -0.000512
   95  O  5 YY   -0.001242  -0.007112   0.001942   0.000576   0.001476
   96  O  5 ZZ    0.001967   0.011461  -0.003825   0.005981  -0.000965
   97  O  5 XY   -0.000908   0.002052   0.001859  -0.001657   0.001280
   98  O  5 XZ    0.002663   0.008250  -0.004820  -0.005102   0.001272
   99  O  5 YZ   -0.000349   0.003780  -0.000287  -0.004370  -0.000057
  100  O  5 XX    0.035134  -0.018558   0.024475  -0.021382  -0.011309
  101  O  5 YY    0.041067  -0.038759   0.062144   0.012878   0.045016
  102  O  5 ZZ   -0.076201   0.057317  -0.086619   0.008504  -0.033707
  103  O  5 XY   -0.000310   0.031470  -0.007663   0.005446   0.040491
  104  O  5 XZ   -0.061997   0.023646  -0.077931  -0.003785   0.042524
  105  O  5 YZ   -0.028665   0.027947  -0.004282  -0.012101   0.001118
  106  O  5 XXX   0.004586  -0.000649   0.003481  -0.000461  -0.002165
  107  O  5 YYY   0.002606  -0.001575   0.000467   0.001209  -0.000887
  108  O  5 ZZZ  -0.004361   0.003135  -0.005872   0.002382  -0.002146
  109  O  5 XXY   0.000651   0.001042  -0.001010   0.000134   0.002014
  110  O  5 XXZ   0.001517  -0.001181   0.000760  -0.003324   0.000221
  111  O  5 YYX  -0.001067  -0.001521   0.005002   0.001069   0.000839
  112  O  5 YYZ   0.004335  -0.003025   0.007117   0.000128   0.002658
  113  O  5 ZZX  -0.005085   0.002391  -0.009673  -0.000451   0.002066
  114  O  5 ZZY  -0.004147   0.001071   0.000383  -0.001756  -0.000824
  115  O  5 XYZ  -0.001582   0.002636  -0.001711  -0.000655   0.001463

                     21         22         23         24         25
                    0.2172     0.2606     0.3697     0.4238     0.4483
                     A          A          A          A          A   
    1  C  1  S    0.007002  -0.086461  -0.043991  -0.000014  -0.007074
    2  C  1  S   -0.282655  -0.282780  -0.134370  -0.000051   0.051118
    3  C  1  S   -0.236587  -0.143271  -0.132470  -0.000026  -0.020452
    4  C  1  S    7.557993   0.556581   3.400475   0.000376   1.132613
    5  C  1  X   -0.053952   0.032280   0.008764  -0.095946  -0.020294
    6  C  1  Y   -0.013904  -0.016042  -0.055658  -0.056297  -0.007151
    7  C  1  Z   -0.125364   0.046167  -0.048367   0.047513  -0.049460
    8  C  1  X   -0.130610   0.491346   0.177940  -0.395605   0.171808
    9  C  1  Y    0.125098  -0.063957   0.043142  -0.232055   0.046523
   10  C  1  Z   -0.117037   0.915949   0.409375   0.196017   0.401310
   11  C  1  X    0.401959   0.077376   0.160775   1.480820   0.566992
   12  C  1  Y   -0.062866   0.316048   0.118683   0.868994  -0.581669
   13  C  1  Z    0.735505   0.530481   0.466396  -0.733483   0.454802
   14  C  1 XX    0.003944   0.025119   0.007909  -0.002763   0.003059
   15  C  1 YY   -0.020188   0.008228   0.006247   0.002822   0.007844
   16  C  1 ZZ    0.016244  -0.033347  -0.014157  -0.000059  -0.010902
   17  C  1 XY    0.026759   0.016911   0.007869   0.001842   0.007701
   18  C  1 XZ   -0.001919  -0.034510  -0.017892   0.000846  -0.018227
   19  C  1 YZ    0.001251  -0.020974  -0.002361  -0.001338   0.006049
   20  C  1 XX    0.188807   0.104721   0.266510  -0.453817   0.011257
   21  C  1 YY   -0.267744   0.177847  -0.032906  -0.075450   0.124709
   22  C  1 ZZ    0.078937  -0.282568  -0.233605   0.529268  -0.135967
   23  C  1 XY    0.505026   0.060948   0.216807  -0.228038   0.490469
   24  C  1 XZ   -0.213493  -0.313905  -0.251696  -0.487132  -0.635481
   25  C  1 YZ   -0.082077  -0.003617  -0.270725  -0.325462   0.431071
   26  C  1 XXX   0.031574  -0.005589   0.006494   0.004784  -0.018283
   27  C  1 YYY   0.001787  -0.009633  -0.028721   0.005651   0.000582
   28  C  1 ZZZ  -0.022277   0.016343   0.015950  -0.020252   0.016652
   29  C  1 XXY   0.044651   0.034655   0.025990  -0.020442   0.023064
   30  C  1 XXZ   0.038349   0.023072   0.000054   0.031816   0.023479
   31  C  1 YYX   0.055369   0.035163   0.039554  -0.008409   0.020483
   32  C  1 YYZ  -0.008462  -0.044999  -0.021453  -0.004645  -0.045820
   33  C  1 ZZX  -0.097730  -0.027665  -0.048267   0.001990   0.004045
   34  C  1 ZZY  -0.047048  -0.021731   0.012544   0.012860  -0.023845
   35  C  1 XYZ   0.024702   0.028811   0.043479   0.014875   0.010521
   36  H  2  S    0.013267  -0.023120   0.003915   0.000004  -0.011851
   37  H  2  S   -0.231272  -0.626779  -0.792088   0.000020  -0.540957
   38  H  2  S   -0.770036   0.419933  -0.563500  -0.000125   0.121176
   39  H  2  X    0.003663  -0.004321   0.000558  -0.001241   0.016704
   40  H  2  Y   -0.001109  -0.006348   0.006728  -0.000720  -0.006576
   41  H  2  Z    0.006047  -0.016243   0.009077   0.000615   0.025921
   42  H  2  X    0.014700   0.228362  -0.016543  -0.009069  -0.325265
   43  H  2  Y   -0.066445  -0.198406  -0.165172  -0.005319   0.035314
   44  H  2  Z   -0.048573   0.226150  -0.228758   0.004456  -0.614540
   45  H  2 XX    0.001382   0.006618   0.008259   0.005794   0.002698
   46  H  2 YY   -0.012729  -0.017810  -0.009502  -0.005173  -0.006846
   47  H  2 ZZ    0.011347   0.011192   0.001243  -0.000621   0.004148
   48  H  2 XY   -0.001713   0.018789   0.022394  -0.003132   0.004782
   49  H  2 XZ    0.017152   0.001955  -0.012430  -0.000940   0.003091
   50  H  2 YZ   -0.011518  -0.007366  -0.001931   0.002941  -0.004921
   51  H  3  S    0.083367  -0.001473  -0.017469  -0.001741  -0.007465
   52  H  3  S   -1.250694  -0.675777  -1.135440   0.468153  -0.869573
   53  H  3  S   -2.028544  -0.414767  -0.604637  -1.124119  -0.196597
   54  H  3  X    0.010600   0.008776   0.017692  -0.006800   0.014681
   55  H  3  Y    0.007046   0.010506   0.010414  -0.008403   0.009615
   56  H  3  Z    0.001489   0.011271  -0.004150  -0.002561  -0.009369
   57  H  3  X    0.573445   0.305572   0.251674  -0.121043   0.140154
   58  H  3  Y    0.423074   0.159243   0.220620  -0.007055   0.076209
   59  H  3  Z    0.115087  -0.150479   0.122911  -0.043661   0.214805
   60  H  3 XX   -0.021694  -0.022169  -0.014076   0.005857  -0.015525
   61  H  3 YY   -0.000295   0.002177  -0.006424   0.006958  -0.001111
   62  H  3 ZZ    0.021989   0.019992   0.020500  -0.012814   0.016636
   63  H  3 XY   -0.046926  -0.035829  -0.028039   0.004966  -0.009523
   64  H  3 XZ   -0.008034   0.004764  -0.010993  -0.008205  -0.008204
   65  H  3 YZ   -0.010937  -0.002509  -0.004502  -0.004279  -0.005517
   66  H  4  S    0.083332  -0.001468  -0.017471   0.001745  -0.007461
   67  H  4  S   -1.249305  -0.675370  -1.134717  -0.468268  -0.868830
   68  H  4  S   -2.027608  -0.414717  -0.605189   1.123949  -0.196303
   69  H  4  X   -0.007012  -0.002994  -0.014837  -0.006366  -0.016725
   70  H  4  Y   -0.003269   0.003601  -0.008670   0.000682  -0.008819
   71  H  4  Z    0.010190   0.017093   0.011956   0.009081   0.006178
   72  H  4  X   -0.388027  -0.290052  -0.151071  -0.009277   0.041630
   73  H  4  Y   -0.141496  -0.190317  -0.015758  -0.069494   0.018571
   74  H  4  Z    0.591234   0.144548   0.322264   0.108319   0.263600
   75  H  4 XX    0.002400  -0.003671   0.000918  -0.006543   0.008357
   76  H  4 YY    0.024841   0.014126   0.016840  -0.002406   0.002156
   77  H  4 ZZ   -0.027241  -0.010455  -0.017758   0.008949  -0.010514
   78  H  4 XY   -0.013999  -0.017805  -0.000051  -0.000733   0.001808
   79  H  4 XZ    0.042431   0.034949   0.029304   0.012911   0.016606
   80  H  4 YZ    0.010464   0.012481   0.010316   0.004709   0.011445
   81  O  5  S    0.027440   0.010893  -0.032853  -0.000009  -0.047479
   82  O  5  S   -0.027227   0.160449  -0.125525  -0.000028  -0.205723
   83  O  5  S   -0.005496   0.034434  -0.036358  -0.000007  -0.066750
   84  O  5  S   -1.399066   1.194774   0.220154   0.000017   0.641562
   85  O  5  X    0.061607   0.009423  -0.128884   0.138249  -0.040696
   86  O  5  Y   -0.056056  -0.112509   0.180233   0.081146  -0.014299
   87  O  5  Z    0.058072  -0.114203  -0.046645  -0.068490  -0.099180
   88  O  5  X    0.105956   0.017823  -0.308044   0.390541   0.012276
   89  O  5  Y   -0.139016  -0.215867   0.496293   0.229217  -0.100108
   90  O  5  Z    0.049438  -0.219643  -0.033786  -0.193468  -0.093988
   91  O  5  X   -0.539693   0.559962   0.779565  -1.434928  -0.340752
   92  O  5  Y    0.096810   0.390657  -1.116853  -0.842319   1.051531
   93  O  5  Z   -0.975255   1.593149   0.250088   0.710843   0.558113
   94  O  5 XX   -0.000236   0.009555  -0.000674   0.014461   0.010690
   95  O  5 YY   -0.007421   0.013918   0.005508   0.002183   0.000285
   96  O  5 ZZ    0.007656  -0.023473  -0.004834  -0.016645  -0.010976
   97  O  5 XY    0.003216   0.000335   0.007489   0.007047  -0.009550
   98  O  5 XZ    0.006232  -0.020702  -0.013956   0.015262   0.005606
   99  O  5 YZ   -0.001923  -0.005735   0.010179   0.010327  -0.023598
  100  O  5 XX    0.023469  -0.032669   0.001498  -0.022390  -0.012914
  101  O  5 YY    0.067254  -0.051548  -0.011106   0.005310  -0.013787
  102  O  5 ZZ   -0.090723   0.084217   0.009608   0.017080   0.026701
  103  O  5 XY   -0.020123   0.014807   0.000725  -0.002373  -0.003419
  104  O  5 XZ   -0.071833   0.060236   0.012738  -0.013517   0.024614
  105  O  5 YZ   -0.008940   0.029150  -0.008822  -0.014280   0.008653
  106  O  5 XXX   0.005455  -0.004653  -0.000369   0.001341  -0.000084
  107  O  5 YYY   0.002549  -0.002520   0.003088   0.003430  -0.006188
  108  O  5 ZZZ  -0.007834   0.005424   0.000415   0.008626   0.006114
  109  O  5 XXY  -0.000874   0.000021   0.001192  -0.001174  -0.000002
  110  O  5 XXZ   0.001688  -0.001470   0.002291  -0.008921  -0.006201
  111  O  5 YYX   0.002930  -0.000288  -0.003947   0.001716  -0.002058
  112  O  5 YYZ   0.008822  -0.005807  -0.002847  -0.002652  -0.002002
  113  O  5 ZZX  -0.010248   0.006532   0.004442  -0.003516   0.002170
  114  O  5 ZZY  -0.002546   0.003360  -0.005335  -0.003428   0.008304
  115  O  5 XYZ  -0.003239   0.002212  -0.001778  -0.003823   0.006960

                     26         27         28         29         30
                    0.5261     0.5488     0.6297     0.6637     0.7413
                     A          A          A          A          A   
    1  C  1  S    0.000006   0.001243   0.000021   0.066709   0.010012
    2  C  1  S    0.000007  -0.022474   0.000027   0.229425  -0.086218
    3  C  1  S    0.000002  -0.084825   0.000011   0.125925   0.024897
    4  C  1  S   -0.000182   1.862358  -0.000086  -0.789940  -1.358674
    5  C  1  X    0.004255   0.032015   0.074081  -0.026555   0.109938
    6  C  1  Y    0.002507  -0.011356   0.043461   0.061828   0.037665
    7  C  1  Z   -0.002074   0.051249  -0.036588   0.019653   0.266645
    8  C  1  X    0.058599   0.028819   0.617382  -0.079576   0.164314
    9  C  1  Y    0.034345  -0.112056   0.362315   0.438264   0.357769
   10  C  1  Z   -0.029195  -0.074482  -0.305782   0.358827   0.755760
   11  C  1  X   -0.026030   0.181175   2.488567  -0.206670   0.690818
   12  C  1  Y   -0.014835  -0.468308   1.460505   1.290183   0.480748
   13  C  1  Z    0.012953  -0.187952  -1.232150   1.111546   1.966554
   14  C  1 XX    0.002885  -0.002191   0.006904   0.007740  -0.001597
   15  C  1 YY   -0.002733   0.000647   0.001093   0.001299  -0.013062
   16  C  1 ZZ   -0.000151   0.001544  -0.007997  -0.009039   0.014659
   17  C  1 XY   -0.001708  -0.009553   0.003423   0.001691   0.017080
   18  C  1 XZ   -0.000636   0.009156   0.007371  -0.005694   0.000228
   19  C  1 YZ    0.001426  -0.003403   0.004944  -0.009887   0.007074
   20  C  1 XX    0.027721  -0.169400  -0.089526   0.737515   0.364540
   21  C  1 YY   -0.038747  -0.186807   0.621501  -0.988193   0.389646
   22  C  1 ZZ    0.011026   0.356207  -0.531976   0.250678  -0.754185
   23  C  1 XY   -0.028598   0.597265   0.581566   1.162089  -0.021445
   24  C  1 XZ   -0.020521  -0.294173   0.645604  -0.122291  -0.579932
   25  C  1 YZ    0.011436   0.594459   0.060638  -0.892993  -0.334155
   26  C  1 XXX  -0.017509   0.030045  -0.007120   0.042794  -0.017985
   27  C  1 YYY   0.021028   0.013805  -0.019466   0.020471  -0.010613
   28  C  1 ZZZ  -0.021989  -0.014691   0.015132  -0.020620   0.021811
   29  C  1 XXY  -0.018626   0.025753   0.036244   0.001920  -0.005592
   30  C  1 XXZ   0.012274   0.020682  -0.030163  -0.004202  -0.012058
   31  C  1 YYX   0.007806  -0.002284   0.007508  -0.049921  -0.008664
   32  C  1 YYZ   0.017227  -0.000972   0.009861   0.031867  -0.017204
   33  C  1 ZZX   0.015684  -0.038027   0.002044  -0.007494   0.032794
   34  C  1 ZZY  -0.009585  -0.044275  -0.010127  -0.029385   0.019830
   35  C  1 XYZ   0.031602   0.007994  -0.019216  -0.006678   0.006685
   36  H  2  S    0.000012   0.015831  -0.000003  -0.061511  -0.004837
   37  H  2  S    0.000355  -0.278060   0.000458   2.245525   0.340266
   38  H  2  S   -0.000043  -0.445182   0.000250   0.025756   0.622929
   39  H  2  X    0.028355  -0.015078   0.007813  -0.012480   0.018016
   40  H  2  Y    0.016639   0.002416   0.004575   0.035759  -0.025350
   41  H  2  Z   -0.014055  -0.027561  -0.003872   0.017208   0.006374
   42  H  2  X   -0.607713   0.389626  -0.248139  -0.103965  -0.440809
   43  H  2  Y   -0.356678  -0.118415  -0.145419   0.129340   0.471232
   44  H  2  Z    0.301237   0.645980   0.122994  -0.058002  -0.332535
   45  H  2 XX    0.011871  -0.007479   0.005546  -0.015919   0.001977
   46  H  2 YY   -0.003047  -0.002980   0.010933   0.036444   0.001259
   47  H  2 ZZ   -0.008823   0.010459  -0.016478  -0.020524  -0.003236
   48  H  2 XY    0.001017   0.018985   0.012623  -0.034426  -0.021552
   49  H  2 XZ    0.006892  -0.012386   0.017612  -0.007154   0.018748
   50  H  2 YZ    0.007527   0.024028   0.005935   0.021759  -0.018543
   51  H  3  S    0.007496  -0.019937  -0.002093   0.029662   0.032777
   52  H  3  S   -0.008686  -0.601467  -1.861409  -1.089521  -0.470267
   53  H  3  S    0.005278  -0.060644  -1.129020   0.089021  -0.262471
   54  H  3  X   -0.021424   0.031716   0.012540   0.013543  -0.005989
   55  H  3  Y    0.016505  -0.004548   0.034469   0.018148  -0.010641
   56  H  3  Z    0.016221   0.013663  -0.019882   0.002373   0.031482
   57  H  3  X    0.436792  -0.264253   0.303110   0.006181   0.058184
   58  H  3  Y   -0.353873   0.337466  -0.231189  -0.060014   0.147130
   59  H  3  Z   -0.401568  -0.167028   0.503649  -0.039117  -0.507254
   60  H  3 XX   -0.013403   0.000017  -0.024339   0.018977   0.000853
   61  H  3 YY    0.000857  -0.001251   0.020444  -0.020172   0.009656
   62  H  3 ZZ    0.012547   0.001234   0.003895   0.001195  -0.010509
   63  H  3 XY    0.005431  -0.005285  -0.015281   0.000365  -0.004875
   64  H  3 XZ    0.010034  -0.000654  -0.007200  -0.006126  -0.012967
   65  H  3 YZ    0.005055   0.005742  -0.011060  -0.011846  -0.007013
   66  H  4  S   -0.007518  -0.019951   0.002080   0.029679   0.032785
   67  H  4  S    0.008816  -0.602018   1.860815  -1.090003  -0.470979
   68  H  4  S   -0.005216  -0.060754   1.128885   0.088914  -0.263252
   69  H  4  X   -0.003447   0.003667   0.041088  -0.015430   0.029006
   70  H  4  Y   -0.031092  -0.020994  -0.003021   0.001171   0.009895
   71  H  4  Z   -0.003880   0.027553  -0.006644   0.016719   0.014126
   72  H  4  X    0.101800  -0.284731  -0.406527   0.018418  -0.439518
   73  H  4  Y    0.669651   0.325101   0.170884  -0.053314  -0.144946
   74  H  4  Z    0.134351  -0.156748  -0.452934  -0.044954  -0.260368
   75  H  4 XX    0.000577  -0.006330  -0.016801   0.002015   0.008837
   76  H  4 YY    0.012155   0.005961  -0.004295   0.002369   0.009249
   77  H  4 ZZ   -0.012732   0.000369   0.021096  -0.004384  -0.018086
   78  H  4 XY    0.003030  -0.000344   0.017251   0.016782  -0.002576
   79  H  4 XZ   -0.006147   0.002168  -0.010193   0.005229  -0.006427
   80  H  4 YZ   -0.011253   0.002823  -0.013928  -0.019010  -0.001646
   81  O  5  S    0.000007   0.024983   0.000048  -0.072395  -0.021113
   82  O  5  S    0.000052   0.124865   0.000151  -0.211588  -0.052999
   83  O  5  S    0.000020   0.047143   0.000042  -0.056653  -0.023029
   84  O  5  S   -0.000138  -0.753528   0.000060   0.867158   2.591786
   85  O  5  X   -0.002405  -0.001595   0.076046   0.018235   0.054367
   86  O  5  Y   -0.001427   0.054397   0.044598  -0.039192   0.041357
   87  O  5  Z    0.001235   0.061248  -0.037597  -0.009580   0.158822
   88  O  5  X   -0.032648  -0.095980   0.266547   0.101285   0.266408
   89  O  5  Y   -0.019140   0.184187   0.156343  -0.127235   0.055429
   90  O  5  Z    0.016210   0.024446  -0.131873   0.053861   0.603739
   91  O  5  X    0.082667  -0.103980  -0.731446   0.023451  -0.110182
[...]
   83  O  5  S    0.272895  -0.002541  -0.159988  -0.000410   0.139319
   84  O  5  S    1.323195   0.001090  -0.157470  -0.000294  -1.565279
   85  O  5  X   -0.085488  -0.126841   0.043658  -0.170790   0.148727
   86  O  5  Y   -0.225377  -0.074113  -0.317137  -0.101381  -0.158614
   87  O  5  Z   -0.440272   0.061066  -0.294491   0.082209   0.118832
   88  O  5  X    0.178947   0.337404  -0.046272   0.470211  -0.365904
   89  O  5  Y    0.866933   0.197418   0.718302   0.276950   0.406615
   90  O  5  Z    1.385903  -0.163281   0.780281  -0.226122  -0.274598
   91  O  5  X    0.087009   0.010855  -0.090455   0.304521  -0.575056
   92  O  5  Y    0.560260   0.006627   0.419255   0.179901   0.634840
   93  O  5  Z    0.833670  -0.003568   0.315799  -0.147910  -0.419261
   94  O  5 XX   -0.259287   0.569519   0.197738  -0.682425  -0.224284
   95  O  5 YY    0.108908  -0.636649   0.176782   0.471407   0.010378
   96  O  5 ZZ    0.150379   0.067130  -0.374520   0.211018   0.213906
   97  O  5 XY   -0.135237  -0.444153  -0.220762   0.238395  -0.753935
   98  O  5 XZ    0.076876  -0.242504  -0.076537  -0.056960   0.798666
   99  O  5 YZ    0.363683   0.267817  -0.354997  -0.379600  -0.234672
  100  O  5 XX   -0.077156  -0.134243  -0.006265   0.840954   0.161733
  101  O  5 YY   -0.473606   0.135154  -0.357206  -0.734740  -0.073666
  102  O  5 ZZ    0.550761  -0.000910   0.363471  -0.106214  -0.088067
  103  O  5 XY    0.282697   0.090911   0.267473  -0.448745   0.828368
  104  O  5 XZ    0.334067   0.041669   0.189299  -0.110749  -0.770104
  105  O  5 YZ    0.038864  -0.067464  -0.032422   0.433974   0.353778
  106  O  5 XXX  -0.249968  -0.186209   0.215438  -0.070008   0.294400
  107  O  5 YYY  -0.389331   0.560201   0.041398   0.732823   0.021828
  108  O  5 ZZZ   0.410625   0.059130  -0.396962   0.064231   0.006870
  109  O  5 XXY  -0.195179  -0.455253  -0.463779  -0.767103   0.171721
  110  O  5 XXZ  -0.441055  -0.178229  -0.326299  -0.030275  -0.007084
  111  O  5 YYX  -0.079402   0.197938  -0.159562   0.135424  -0.233393
  112  O  5 YYZ  -0.109856   0.098897   0.858879  -0.055899  -0.002132
  113  O  5 ZZX   0.414768   0.051888  -0.129479  -0.041499  -0.161586
  114  O  5 ZZY   0.717522  -0.296336   0.408238  -0.216082  -0.201006
  115  O  5 XYZ   0.260263   0.351187  -0.337031   0.409805   0.188916

                     96         97         98         99        100
                    6.4278     6.6365     6.6648     6.7342     7.0954
                     A          A          A          A          A   
    1  C  1  S   -0.000129   0.003813  -0.046108   0.162315  -0.375442
    2  C  1  S   -0.002445   0.000063   0.146392   0.331079  -0.736610
    3  C  1  S   -0.003579  -0.010915   0.371993   0.097741  -0.220586
    4  C  1  S   -0.001408  -0.001649   0.266921   0.616653  -1.016529
    5  C  1  X    0.033689   0.084431  -0.036117  -0.017727   0.080300
    6  C  1  Y    0.020519   0.048989  -0.025817  -0.060051   0.078401
    7  C  1  Z   -0.015632  -0.038497  -0.113197  -0.101551   0.254982
    8  C  1  X    0.331437  -0.722683  -0.878739  -0.144080  -0.367219
    9  C  1  Y    0.193518  -0.412985  -0.544761   0.500005  -0.250233
   10  C  1  Z   -0.134471   0.449945  -2.343281   0.246680  -1.044160
   11  C  1  X    0.269347  -0.261046  -0.153687  -0.036299  -0.037771
   12  C  1  Y    0.159050  -0.152899  -0.136728  -0.063606  -0.036903
   13  C  1  Z   -0.128583   0.143091  -0.443469  -0.165461  -0.119997
   14  C  1 XX    0.059499   0.129501  -0.242804   0.093136  -0.047328
   15  C  1 YY    0.026840   0.053635  -0.202585  -0.062197  -0.111146
   16  C  1 ZZ   -0.086339  -0.183136   0.445389  -0.030939   0.158474
   17  C  1 XY    0.044074   0.087123   0.031299  -0.065798   0.025366
   18  C  1 XZ    0.075107   0.154219   0.308405   0.107542   0.128103
   19  C  1 YZ    0.042751   0.078205   0.279726  -0.236288   0.022760
   20  C  1 XX   -0.154407   0.395197  -0.399641   0.257184  -0.482754
   21  C  1 YY   -0.036740   0.121327  -0.049348  -0.066710  -0.034767
   22  C  1 ZZ    0.191147  -0.516524   0.448989  -0.190474   0.517521
   23  C  1 XY   -0.086283   0.258768  -0.365503   0.051086  -0.449399
   24  C  1 XZ   -0.190750   0.456740   0.567358  -0.060396   0.628425
   25  C  1 YZ   -0.118787   0.267563   0.328517  -0.417480   0.389446
   26  C  1 XXX   0.288137   0.252481  -0.049937  -0.050603   0.199402
   27  C  1 YYY  -0.002003   0.162676   0.147138  -0.218148   0.079255
   28  C  1 ZZZ   1.112294   0.872539  -0.099309   0.084043  -0.197775
   29  C  1 XXY   0.259062  -0.019659  -0.122914  -0.089788   0.072431
   30  C  1 XXZ  -1.089720  -0.801680   0.024609  -0.190726   0.102656
   31  C  1 YYX   0.105563   0.081900  -0.036113   0.110055   0.077553
   32  C  1 YYZ  -0.402579  -0.368955   0.108628   0.077970   0.162687
   33  C  1 ZZX  -0.492140  -0.420639   0.103110  -0.042164  -0.345079
   34  C  1 ZZY  -0.256374  -0.198594  -0.074493   0.382464  -0.178763
   35  C  1 XYZ  -0.793644  -0.513296  -0.262263   0.143497  -0.021875
   36  H  2  S    0.005932   0.027995  -0.493894   0.818309  -0.047931
   37  H  2  S    0.012081   0.060163  -1.527808   1.286383  -1.968999
   38  H  2  S    0.001111   0.003377  -0.139562  -0.083724   0.152805
   39  H  2  X   -0.079410   0.134150   0.118176  -0.323225   0.363506
   40  H  2  Y   -0.036991   0.111661  -0.655612   0.641619  -0.706489
   41  H  2  Z    0.039236  -0.051413  -0.542683   0.102731  -0.091583
   42  H  2  X   -0.076740   0.092333   0.105540  -0.183167   0.329125
   43  H  2  Y   -0.039564   0.076167  -0.563426   0.340905  -0.881700
   44  H  2  Z    0.038135  -0.035889  -0.455060   0.032873  -0.366067
   45  H  2 XX    0.111796  -0.174159   0.268557   0.029976   0.213709
   46  H  2 YY   -0.106171   0.187156  -0.194486  -0.028844  -0.505556
   47  H  2 ZZ   -0.005625  -0.012997  -0.074071  -0.001132   0.291847
   48  H  2 XY   -0.072455   0.127453  -0.041575   0.005440   0.504151
   49  H  2 XZ   -0.026351   0.059328   0.204289   0.015917   0.064172
   50  H  2 YZ    0.055604  -0.063172  -0.587273  -0.052923  -0.256089
   51  H  3  S    0.014408  -0.070041   0.145675   0.038158  -0.097648
   52  H  3  S   -0.221902   0.124242   1.063242  -0.365147   1.092406
   53  H  3  S   -0.159201   0.156869   0.050822  -0.026050   0.124923
   54  H  3  X    0.011403  -0.026467  -0.135900  -0.001476   0.011238
   55  H  3  Y    0.023488  -0.006905  -0.112720  -0.011785   0.011319
   56  H  3  Z    0.486242   0.304703   0.000294  -0.023238  -0.018941
   57  H  3  X    0.068360  -0.115083  -0.385634   0.129052  -0.378012
   58  H  3  Y    0.038006  -0.054606  -0.212460   0.068619  -0.222472
   59  H  3  Z    0.417594  -0.126860  -0.061081   0.131801  -0.238528
   60  H  3 XX    0.060969   0.017615   0.042190  -0.034169   0.034912
   61  H  3 YY    0.039857  -0.059843   0.008103   0.031017  -0.036973
   62  H  3 ZZ   -0.100826   0.042228  -0.050293   0.003153   0.002061
   63  H  3 XY   -0.000968   0.059109   0.062259  -0.008789   0.054690
   64  H  3 XZ   -0.553783  -0.197224  -0.024105  -0.023855   0.061512
   65  H  3 YZ   -0.345884  -0.120567   0.008699   0.002036   0.025269
   66  H  4  S   -0.017494   0.061456   0.150202   0.036391  -0.098272
   67  H  4  S    0.197641  -0.201959   1.047443  -0.352759   1.095360
   68  H  4  S    0.158067  -0.160048   0.040335  -0.019805   0.124958
   69  H  4  X   -0.284486  -0.208997   0.101094   0.000859  -0.021534
   70  H  4  Y   -0.184667  -0.130903   0.027597  -0.010597  -0.009020
   71  H  4  Z   -0.348755  -0.183419  -0.141781  -0.017459  -0.000455
   72  H  4  X   -0.218093  -0.004942   0.211486  -0.002716   0.112427
   73  H  4  Y   -0.126569  -0.018527   0.143921  -0.007836   0.070024
   74  H  4  Z   -0.336056   0.208200  -0.349326   0.184923  -0.483749
   75  H  4 XX   -0.413237  -0.152948  -0.008193   0.020788  -0.034954
   76  H  4 YY   -0.170202  -0.002782  -0.012173   0.008202  -0.052276
   77  H  4 ZZ    0.583439   0.155730   0.020366  -0.028991   0.087230
   78  H  4 XY   -0.246929  -0.169983   0.018458  -0.007042   0.016602
   79  H  4 XZ    0.094214   0.008951  -0.074722  -0.001988  -0.018419
   80  H  4 YZ    0.077539   0.017388  -0.018551   0.033534  -0.027630
   81  O  5  S    0.001457   0.008005  -0.112109   0.323750  -0.248826
   82  O  5  S    0.001136   0.009097  -0.046866   0.552050  -0.287344
   83  O  5  S   -0.002592  -0.008350   0.267642   0.017575   0.210352
   84  O  5  S    0.013963   0.011977  -1.010168  -1.968777   1.489222
   85  O  5  X   -0.158105  -0.182367  -0.000559   0.088964  -0.038544
   86  O  5  Y   -0.097322  -0.122605   0.349870  -0.274899   0.191526
   87  O  5  Z    0.072200   0.074603   0.429701  -0.149945   0.145528
   88  O  5  X    0.516761   0.492642   0.140236  -0.151177   0.306966
   89  O  5  Y    0.318705   0.344755  -1.357168   0.758708  -1.468942
   90  O  5  Z   -0.238200  -0.194697  -1.364721   0.604494  -1.097258
   91  O  5  X   -0.171605   0.409549   0.012267  -0.222589   0.303262
   92  O  5  Y   -0.093926   0.265396  -0.725703   0.205369  -0.176582
   93  O  5  Z    0.096338  -0.176265  -0.865903  -0.190799   0.408410
   94  O  5 XX    0.311333  -0.303245  -0.360577  -0.422039  -0.056573
   95  O  5 YY    0.197519  -0.199954  -0.029236   0.264499   0.823643
   96  O  5 ZZ   -0.508852   0.503199   0.389813   0.157540  -0.767070
   97  O  5 XY    0.298805  -0.308913  -0.044636  -0.076483  -0.598651
   98  O  5 XZ    0.495745  -0.522223   0.165522  -0.098263  -0.418820
   99  O  5 YZ    0.241368  -0.253661   0.494618   0.762593   0.144851
  100  O  5 XX    0.089944   0.495811   0.458839   0.634948  -0.098516
  101  O  5 YY   -0.135910   0.411625   0.941761  -0.841309  -0.110788
  102  O  5 ZZ    0.045965  -0.907436  -1.400600   0.206362   0.209304
  103  O  5 XY   -0.091003   0.648101  -0.718926   0.404613   0.050741
  104  O  5 XZ   -0.059620   0.997079  -0.542708   0.407938   0.120416
  105  O  5 YZ    0.047070   0.432860  -0.658094  -1.201472   0.116755
  106  O  5 XXX  -0.177043  -0.157926  -0.075285   0.257594  -0.117868
  107  O  5 YYY   0.041174  -0.403134  -0.138669   0.487492  -0.113963
  108  O  5 ZZZ  -0.470637  -0.741486  -0.394421  -0.270664   0.170790
  109  O  5 XXY  -0.110428   0.288152  -0.196016  -0.057503   0.145270
  110  O  5 XXZ   0.409438   0.701423   0.048992   0.141086   0.062991
  111  O  5 YYX  -0.005706  -0.162591   0.758943  -0.629807   0.188927
  112  O  5 YYZ   0.221988   0.293385   0.480180   0.222047  -0.292131
  113  O  5 ZZX   0.243234   0.374472  -0.657937   0.284208  -0.030790
  114  O  5 ZZY   0.055187   0.252710   0.382060  -0.596537   0.007627
  115  O  5 XYZ   0.376464   0.275151  -0.162894  -0.399021   0.173171

                    101        102
                   11.1688    12.2820
                     A          A   
    1  C  1  S   -4.730732   4.337398
    2  C  1  S   -8.474830   7.831237
    3  C  1  S    1.822438  -2.021472
    4  C  1  S   -5.305501   2.794716
    5  C  1  X    0.063442   0.058741
    6  C  1  Y    0.037190   0.011693
    7  C  1  Z    0.172826   0.132605
    8  C  1  X   -0.900761  -0.351217
    9  C  1  Y   -0.542361  -0.082625
   10  C  1  Z   -2.461468  -0.805313
   11  C  1  X   -0.050709   0.089864
   12  C  1  Y   -0.019742  -0.045236
   13  C  1  Z   -0.123135   0.134187
   14  C  1 XX   -0.172449  -0.038786
   15  C  1 YY    0.224169  -0.505362
   16  C  1 ZZ   -0.051720   0.544148
   17  C  1 XY   -0.473932   0.496524
   18  C  1 XZ    0.229074   0.165482
   19  C  1 YZ    0.059083   0.106348
   20  C  1 XX   -0.895028  -0.168460
   21  C  1 YY    0.719242  -1.016024
   22  C  1 ZZ    0.175786   1.184484
   23  C  1 XY   -1.775081   0.899157
   24  C  1 XZ    1.085712   0.450453
   25  C  1 YZ    0.535878   0.283373
   26  C  1 XXX  -0.254178   0.562395
   27  C  1 YYY   0.033589   0.204107
   28  C  1 ZZZ  -0.022736  -0.492602
   29  C  1 XXY  -0.367130   0.326035
   30  C  1 XXZ  -0.164959   0.351279
   31  C  1 YYX  -0.125229   0.291395
   32  C  1 YYZ   0.195463   0.309616
   33  C  1 ZZX   0.466244  -1.045927
   34  C  1 ZZY   0.322065  -0.599874
   35  C  1 XYZ  -0.315078   0.038167
   36  H  2  S    0.354390   0.221342
   37  H  2  S    1.912114   2.636144
   38  H  2  S    0.317985  -0.145562
   39  H  2  X   -0.313121  -0.276282
   40  H  2  Y    0.656358   0.603456
   41  H  2  Z    0.133163   0.146807
   42  H  2  X   -0.505836  -0.539606
   43  H  2  Y    1.054669   1.207888
   44  H  2  Z    0.214262   0.320504
   45  H  2 XX   -0.160721  -0.163305
   46  H  2 YY    0.470204   0.433680
   47  H  2 ZZ   -0.309483  -0.270375
   48  H  2 XY   -0.411389  -0.403963
   49  H  2 XZ   -0.129590  -0.088831
   50  H  2 YZ    0.223118   0.210957
   51  H  3  S    0.025360  -0.139843
   52  H  3  S    5.477635  -2.862124
   53  H  3  S    0.700891  -0.386112
   54  H  3  X   -0.399217   0.360771
   55  H  3  Y   -0.249893   0.214718
   56  H  3  Z   -0.015708   0.078067
   57  H  3  X   -2.229085   1.325364
   58  H  3  Y   -1.407510   0.819458
   59  H  3  Z   -0.614223  -0.095053
   60  H  3 XX    0.334561  -0.289295
   61  H  3 YY   -0.055461   0.037171
   62  H  3 ZZ   -0.279100   0.252124
   63  H  3 XY    0.482992  -0.351934
   64  H  3 XZ    0.125380  -0.046730
   65  H  3 YZ    0.086557  -0.014133
   66  H  4  S    0.025597  -0.139760
   67  H  4  S    5.477638  -2.867919
   68  H  4  S    0.699193  -0.388308
   69  H  4  X    0.276679  -0.201627
   70  H  4  Y    0.149352  -0.117808
   71  H  4  Z   -0.351388   0.357570
   72  H  4  X    1.224708  -1.003422
   73  H  4  Y    0.634331  -0.557767
   74  H  4  Z   -2.328657   1.061092
   75  H  4 XX   -0.063289   0.009274
   76  H  4 YY   -0.248229   0.157779
   77  H  4 ZZ    0.311518  -0.167053
   78  H  4 XY    0.159056  -0.131940
   79  H  4 XZ   -0.447132   0.355729
   80  H  4 YZ   -0.226000   0.215881
   81  O  5  S   -2.481572  -2.888877
   82  O  5  S   -3.806375  -4.451385
   83  O  5  S    1.684109   2.177068
   84  O  5  S    1.959348  -3.796839
   85  O  5  X    0.046180   0.223207
   86  O  5  Y   -0.181565  -0.100485
   87  O  5  Z   -0.119180   0.334299
   88  O  5  X   -0.474327  -1.307161
   89  O  5  Y    1.269244   0.791497
   90  O  5  Z    0.525925  -1.721597
   91  O  5  X    0.222723  -0.613077
   92  O  5  Y    0.751743   0.430951
   93  O  5  Z    1.330420  -0.737490
   94  O  5 XX    0.056173   0.059279
   95  O  5 YY   -0.042588  -0.033400
   96  O  5 ZZ   -0.013585  -0.025879
   97  O  5 XY    0.067953   0.070307
   98  O  5 XZ   -0.033550  -0.046534
   99  O  5 YZ   -0.058046  -0.057032
  100  O  5 XX    0.110964   0.592228
  101  O  5 YY   -0.716007  -0.095912
  102  O  5 ZZ    0.605043  -0.496316
  103  O  5 XY    0.484433   0.275020
  104  O  5 XZ    0.381293  -0.342162
  105  O  5 YZ   -0.251940  -0.760655
  106  O  5 XXX   0.082676   0.268631
  107  O  5 YYY   0.122338   0.228808
  108  O  5 ZZZ  -0.075372  -0.284333
  109  O  5 XXY  -0.075019   0.007038
  110  O  5 XXZ  -0.029644   0.105891
  111  O  5 YYX  -0.250882  -0.161026
  112  O  5 YYZ   0.130765   0.275582
  113  O  5 ZZX   0.139961  -0.199381
  114  O  5 ZZY  -0.089115  -0.314016
  115  O  5 XYZ  -0.123650  -0.172051
  
 BETA ORBITALS

 THE NUCLEAR REPULSION AT THE IRC POINT IS       36.5867530971

 * * * IRC RESTART INFORMATION * * *
 COORDINATES FOR $DATA AND ENTIRE $IRC GROUP FOLLOW

 COORDINATES OF SYMMETRY UNIQUE ATOMS (ANGS)
   ATOM   CHARGE       X              Y              Z
 ------------------------------------------------------------
 CARBON      6.0  -2.0254055480   0.1951954325  -2.2342163094
 HYDROGEN    1.0  -2.0518448748  -0.9694333716  -3.6537595355
 HYDROGEN    1.0  -1.0968081724   0.7678498830  -2.1125237631
 HYDROGEN    1.0  -2.6091187637  -0.1260389790  -1.3617382433
 OXYGEN      8.0  -2.4366648091  -0.0901768027  -3.4032321231
 $IRC   PACE=GS2        STRIDE= 0.10000   NPOINT=??
        STOTAL=  2.399317   NEXTPT=  25
        NPRT= 0   NPUN= 0   SADDLE=.FALSE.
         GA(   1)= 3.205545459E-03,-7.428915253E-03,-2.469970890E-03
         GA(   4)= 1.100646289E-02,-1.196913661E-03, 1.907592302E-02
         GA(   7)= 1.913216099E-03,-3.064155339E-03,-3.224199245E-04
         GA(  10)= 1.208226433E-03,-2.648948412E-03,-1.902833696E-04
         GA(  13)=-1.733345088E-02, 1.433893266E-02,-1.609324884E-02
 $END   
 A GS2 RESTART ALSO REQUIRES THE UPDATED $HESS GROUP FROM THE PUNCH FILE
 ......DONE WITH THIS PORTION OF THE IRC......
 CPU     0: STEP CPU TIME=     0.02 TOTAL CPU TIME=        158.5 (      2.6 MIN)
 TOTAL WALL CLOCK TIME=        199.3 SECONDS, CPU UTILIZATION IS    79.53%
               2601469  WORDS OF DYNAMIC MEMORY USED
 EXECUTION OF GAMESS TERMINATED NORMALLY Thu Mar  5 15:51:53 2020
 DDI: 263640 bytes (0.3 MB / 0 MWords) used by master data server.

 ----------------------------------------
 CPU timing information for all processes
 ========================================
 0: 156.650 + 1.902 = 158.552
 1: 151.33 + 1.276 = 152.310
 2: 150.593 + 1.90 = 151.684
 3: 159.779 + 1.323 = 161.102
 4: 153.401 + 1.275 = 154.677
 5: 154.396 + 0.882 = 155.279
 6: 154.987 + 1.324 = 156.311
 7: 152.304 + 1.194 = 153.498
 8: 153.309 + 0.815 = 154.125
 9: 149.977 + 1.119 = 151.97
 10: 147.860 + 1.101 = 148.962
 11: 148.285 + 0.767 = 149.52
 ----------------------------------------
 ddikick.x: exited gracefully.
echo copy *.dat file
copy *.dat file
cp /home/seva/scr/meth_cat_IRC_s.dat .
/home/sergey/scripts/rmtmp.sh
My running nodes: [compute-0-9.local ]
Deleting files local temp
unset echo
----- accounting info -----
Files used on the master node compute-0-9.local were:
-rw-rw-r-- 1 seva seva    4403 Mar  5 15:48 /state/partition1/scr/seva/meth_cat_IRC_s.F05
-rw-rw-r-- 1 seva seva 2650320 Mar  5 15:51 /state/partition1/scr/seva/meth_cat_IRC_s.F10
-rw-rw-r-- 1 seva seva 1561824 Mar  5 15:51 /state/partition1/scr/seva/meth_cat_IRC_s.F22
-rw-rw-r-- 1 seva seva 1561824 Mar  5 15:51 /state/partition1/scr/seva/meth_cat_IRC_s.F22.001
-rw-rw-r-- 1 seva seva 1561824 Mar  5 15:51 /state/partition1/scr/seva/meth_cat_IRC_s.F22.002
-rw-rw-r-- 1 seva seva 1561824 Mar  5 15:51 /state/partition1/scr/seva/meth_cat_IRC_s.F22.003
-rw-rw-r-- 1 seva seva 1561824 Mar  5 15:51 /state/partition1/scr/seva/meth_cat_IRC_s.F22.004
-rw-rw-r-- 1 seva seva 1561824 Mar  5 15:51 /state/partition1/scr/seva/meth_cat_IRC_s.F22.005
-rw-rw-r-- 1 seva seva 1561824 Mar  5 15:51 /state/partition1/scr/seva/meth_cat_IRC_s.F22.006
-rw-rw-r-- 1 seva seva 1561824 Mar  5 15:51 /state/partition1/scr/seva/meth_cat_IRC_s.F22.007
-rw-rw-r-- 1 seva seva 1561824 Mar  5 15:51 /state/partition1/scr/seva/meth_cat_IRC_s.F22.008
-rw-rw-r-- 1 seva seva 1561824 Mar  5 15:51 /state/partition1/scr/seva/meth_cat_IRC_s.F22.009
-rw-rw-r-- 1 seva seva 1561824 Mar  5 15:51 /state/partition1/scr/seva/meth_cat_IRC_s.F22.010
-rw-rw-r-- 1 seva seva 1561824 Mar  5 15:51 /state/partition1/scr/seva/meth_cat_IRC_s.F22.011
ls: No match.
ls: No match.
ls: No match.
Thu Mar  5 15:51:57 PST 2020
0.394u 0.189s 3:24.21 0.2%	0+0k 144+6312io 1pf+0w
Removing semaphores for seva
Semaphores remain for other users:

------ Semaphore Arrays --------
key        semid      owner      perms      nsems     
0x00000000 127434752  amir       600        25        
0x00000000 127467521  amir       600        25        
0x00000000 127500290  amir       600        25        
0x00000000 127533059  amir       600        1         
0x00000000 127565828  amir       600        25        
0x00000000 127598597  amir       600        25        
0x00000000 127631366  amir       600        25        
0x00000000 127664135  amir       600        25        
0x00000000 127696904  amir       600        25        
0x00000000 127729673  amir       600        25        
0x00000000 127762442  amir       600        25        
0x00000000 127795211  amir       600        25        
0x00000000 127827980  amir       600        25        
0x00000000 127860749  amir       600        25        

