Warning: no access to tty (Bad file descriptor).
Thus no job control in this shell.
----- GAMESS execution script 'rungms' -----
This job is running on host compute-0-8.local
under operating system Linux at Wed Apr 21 22:01:56 PDT 2021
Available scratch disk space (Kbyte units) at beginning of the job is
Filesystem      1K-blocks    Used  Available Use% Mounted on
/dev/sda5      1123698384 3412504 1063182008   1% /state/partition1
GAMESS temporary binary files will be written to /state/partition1/scr/seva
GAMESS supplementary output files will be written to /home/seva/scr
Copying input file irc_t.inp to your run's scratch directory...
cp irc_t.inp /state/partition1/scr/seva/irc_t.F05
unset echo
/home/sergey/scripts/mktmp.sh
My running nodes: [compute-0-8.local ]
Trying node compute-0-8.local
mkdir: cannot create directory ‘/tmp/26008.1.medium.q’: File exists
/home/apps/gamess/gamess2018c/ddikick.x /home/apps/gamess/gamess2018c/gamess.00.x irc_t -ddi 1 12 compute-0-8.local:cpus=12 -scr /state/partition1/scr/seva

 Distributed Data Interface kickoff program.
 Initiating 12 compute processes on 1 nodes to run the following command:
 /home/apps/gamess/gamess2018c/gamess.00.x irc_t 

          ******************************************************
          *         GAMESS VERSION = 14 FEB 2018 (R1)         *
          *             FROM IOWA STATE UNIVERSITY             *
          * M.W.SCHMIDT, K.K.BALDRIDGE, J.A.BOATZ, S.T.ELBERT, *
          *   M.S.GORDON, J.H.JENSEN, S.KOSEKI, N.MATSUNAGA,   *
          *          K.A.NGUYEN, S.J.SU, T.L.WINDUS,           *
          *       TOGETHER WITH M.DUPUIS, J.A.MONTGOMERY       *
          *         J.COMPUT.CHEM.  14, 1347-1363(1993)        *
          **************** 64 BIT INTEL VERSION ****************

  SINCE 1993, STUDENTS AND POSTDOCS WORKING AT IOWA STATE UNIVERSITY
  AND ALSO IN THEIR VARIOUS JOBS AFTER LEAVING ISU HAVE MADE IMPORTANT
  CONTRIBUTIONS TO THE CODE:
     IVANA ADAMOVIC, CHRISTINE AIKENS, YURI ALEXEEV, POOJA ARORA,
     ANDREY ASADCHEV, ROB BELL, PRADIPTA BANDYOPADHYAY, JONATHAN BENTZ,
     BRETT BODE, KURT BRORSEN, CALEB CARLIN, GALINA CHABAN, WEI CHEN,
     CHEOL HO CHOI, PAUL DAY, ALBERT DEFUSCO, NUWAN DESILVA, TIM DUDLEY,
     DMITRI FEDOROV, ALEX FINDLATER, GRAHAM FLETCHER, MARK FREITAG,
     KURT GLAESEMANN, ANASTASIA GUININA,
     DAN KEMP, GRANT MERRILL, NORIYUKI MINEZAWA, JONATHAN MULLIN,
     TAKESHI NAGATA, SEAN NEDD, HEATHER NETZLOFF, BOSILJKA NJEGIC, RYAN OLSON,
     MIKE PAK, BUU PHAM,
     SPENCER PRUITT, LUKE ROSKOP, JIM SHOEMAKER, LYUDMILA SLIPCHENKO,
     TONY SMITH, SAROM SOK LEANG, JIE SONG, TETSUYA TAKETSUGU, SIMON WEBB,
     PENG XU, SOOHAENG YOO, FEDERICO ZAHARIEV

  ADDITIONAL CODE HAS BEEN PROVIDED BY COLLABORATORS IN OTHER GROUPS:
     IOWA STATE UNIVERSITY:
          JOE IVANIC, AARON WEST, LAIMUTIS BYTAUTAS, KLAUS RUEDENBERG
     UNIVERSITY OF TOKYO: KIMIHIKO HIRAO, TAKAHITO NAKAJIMA,
          TAKAO TSUNEDA, MUNEAKI KAMIYA, SUSUMU YANAGISAWA,
          KIYOSHI YAGI, MAHITO CHIBA, SEIKEN TOKURA, NAOAKI KAWAKAMI
     UNIVERSITY OF AARHUS: FRANK JENSEN
     UNIVERSITY OF IOWA: VISVALDAS KAIRYS, HUI LI
     NATIONAL INST. OF STANDARDS AND TECHNOLOGY: WALT STEVENS, DAVID GARMER
     UNIVERSITY OF PISA: BENEDETTA MENNUCCI, JACOPO TOMASI
     UNIVERSITY OF MEMPHIS: HENRY KURTZ, PRAKASHAN KORAMBATH
     UNIVERSITY OF ALBERTA: TOBY ZENG, MARIUSZ KLOBUKOWSKI
     UNIVERSITY OF NEW ENGLAND: MARK SPACKMAN
     MIE UNIVERSITY: HIROAKI UMEDA
     NAT. INST. OF ADVANCED INDUSTRIAL SCIENCE AND TECHNOLOGY: KAZUO KITAURA
     MICHIGAN STATE UNIVERSITY:
          KAROL KOWALSKI, MARTA WLOCH, JEFFREY GOUR, JESSE LUTZ,
          WEI LI, PIOTR PIECUCH
     UNIVERSITY OF SILESIA: MONIKA MUSIAL, STANISLAW KUCHARSKI
     FACULTES UNIVERSITAIRES NOTRE-DAME DE LA PAIX:
          OLIVIER QUINET, BENOIT CHAMPAGNE
     UNIVERSITY OF CALIFORNIA - SANTA BARBARA: BERNARD KIRTMAN
     INSTITUTE FOR MOLECULAR SCIENCE:
          KAZUYA ISHIMURA, MICHIO KATOUDA, AND SHIGERU NAGASE
     UNIVERSITY OF NOTRE DAME: ANNA POMOGAEVA, DAN CHIPMAN
     KYUSHU UNIVERSITY:
          HARUYUKI NAKANO,
          FENG LONG GU, JACEK KORCHOWIEC, MARCIN MAKOWSKI, AND YURIKO AOKI,
          HIROTOSHI MORI AND EISAKU MIYOSHI
     PENNSYLVANIA STATE UNIVERSITY:
          TZVETELIN IORDANOV, CHET SWALINA, JONATHAN SKONE,
          SHARON HAMMES-SCHIFFER
     WASEDA UNIVERSITY:
          MASATO KOBAYASHI, TOMOKO AKAMA, TSUGUKI TOUMA,
          TAKESHI YOSHIKAWA, YASUHIRO IKABATA, JUNJI SEINO,
          YUYA NAKAJIMA, HIROMI NAKAI
     NANJING UNIVERSITY: SHUHUA LI
     UNIVERSITY OF NEBRASKA:
          PEIFENG SU, DEJUN SI, NANDUN THELLAMUREGE, YALI WANG, HUI LI
     UNIVERSITY OF ZURICH: ROBERTO PEVERATI, KIM BALDRIDGE
     N. COPERNICUS UNIVERSITY AND JACKSON STATE UNIVERSITY:
          MARIA BARYSZ
     UNIVERSITY OF COPENHAGEN: Jimmy Kromann, CASPER STEINMANN
     TOKYO INSTITUTE OF TECHNOLOGY: HIROYA NAKATA
     NAGOYA UNIVERSITY: YOSHIO NISHIMOTO, STEPHAN IRLE
     MOSCOW STATE UNIVERSITY: VLADIMIR MIRONOV


 PARALLEL VERSION RUNNING ON       12 PROCESSORS IN        1 NODES.

 EXECUTION OF GAMESS BEGUN Wed Apr 21 22:01:57 2021

            ECHO OF THE FIRST FEW INPUT CARDS -
 INPUT CARD> $contrl scftyp=uhf dfttyp=b3lyp runtyp=irc                                     
 INPUT CARD> mult=3 ispher=1 maxit=200 $end                                                 
 INPUT CARD> $system mwords=500 $end                                                        
 INPUT CARD> $SCF DIRSCF=.T. SHIFT=.t. damp=.t. $END                                        
 INPUT CARD> $statpt hess=read nstep=400 $end                                               
 INPUT CARD> $irc pace=gs2 stride=0.10 npoint=40 $end                                       
 INPUT CARD> $dft nleb0=302 nrad0=96 DC=.t. IDCVER=3 $end                                   
 INPUT CARD> $basis gbasis=cct $END                                                         
 INPUT CARD> $DATA                                                                          
 INPUT CARD> C3H4                                                                           
 INPUT CARD>C1                                                                              
 INPUT CARD>CARBON      6.0      0.000417251         0.023477805        -0.727075013        
 INPUT CARD>CARBON      6.0     -0.811542633         0.391829636         0.436824334        
 INPUT CARD>CARBON      6.0      0.812300918         0.391911037         0.436415492        
 INPUT CARD>HYDROGEN    1.0      0.001529255        -0.951971916        -1.205710611        
 INPUT CARD>HYDROGEN    1.0     -0.002009902         0.844830500        -1.466911614        
 INPUT CARD>HYDROGEN    1.0     -1.453261602        -0.349409590         0.904452632        
 INPUT CARD>HYDROGEN    1.0      1.452566712        -0.350667470         0.904008074        
 INPUT CARD> $END                                                                           
 INPUT CARD>                                                                                
 INPUT CARD> $HESS                                                                          
 INPUT CARD>ENERGY IS     -116.4738276126 E(NUC) IS       61.8594520257                     
 INPUT CARD> 1  1 2.40379089E-01-3.72354506E-04 5.86356736E-04-8.90214141E-02 7.03243652E-03
 INPUT CARD> 1  2 8.04465806E-02-8.90242990E-02-7.35152476E-03-8.07504066E-02-4.89891891E-02
 INPUT CARD> 1  3 2.35874793E-04 1.48034953E-04-1.62716583E-02 3.80577010E-04-4.78005252E-04
 INPUT CARD> 1  4 1.39980099E-03 3.65020930E-03 1.63517793E-02 1.46090089E-03-3.57740084E-03
 INPUT CARD> 1  5-1.63042268E-02                                                            
 INPUT CARD> 2  1-3.72354506E-04 5.29298660E-01 8.58181999E-02 3.80095344E-02-5.23736188E-02
 INPUT CARD> 2  2-7.18522833E-02-3.81685186E-02-5.25596577E-02-7.21258159E-02 2.57507159E-04
 INPUT CARD> 2  3-2.67892597E-01-1.06736840E-01 3.06238397E-04-1.67876598E-01 1.23148524E-01
 INPUT CARD> 2  4-3.37555884E-03 5.72644002E-03 2.08933863E-02 3.37949039E-03 5.72635236E-03
 INPUT CARD> 2  5 2.09669778E-02                                                            
 INPUT CARD> 3  1 5.86356736E-04 8.58181999E-02 5.64696019E-01 1.14265966E-01-3.19445654E-02
 INPUT CARD> 3  2-1.66261869E-01-1.14518769E-01-3.19803729E-02-1.66743683E-01 1.33650764E-04
 INPUT CARD> 3  3-1.04346018E-01-8.48309483E-02-3.63483627E-04 1.03350665E-01-1.33883834E-01
 INPUT CARD> 3  4 6.44013202E-03-1.03979261E-02-6.48265860E-03-6.54162350E-03-1.04630872E-02
 INPUT CARD> 3  5-6.51407770E-03                                                            
 INPUT CARD> 4  1-8.90214141E-02 3.80095344E-02 1.14265966E-01 3.41440871E-01 9.27867469E-02
 INPUT CARD> 4  2-1.87294360E-01-1.10915713E-01 1.13826561E-02-1.35144435E-02 2.87912475E-03
 INPUT CARD> 4  3-1.53561803E-03-1.39598507E-03-3.09915321E-03-4.22057615E-03 6.47845505E-03
 INPUT CARD> 4  4-1.35214257E-01-1.34140597E-01 7.49307100E-02-6.07562042E-03-2.22016356E-03
 INPUT CARD> 4  5 6.55694580E-03                                                            
 INPUT CARD> 5  1 7.03243652E-03-5.23736188E-02-3.19445654E-02 9.27867469E-02 2.66817654E-01
 INPUT CARD> 5  2-6.34460222E-02-1.13677332E-02-4.30580777E-02 3.27437457E-02 2.34629158E-02
 INPUT CARD> 5  3-2.42498855E-04-1.35390146E-02-1.75817551E-02 1.70889506E-03 5.89214247E-03
 INPUT CARD> 5  4-1.08888686E-01-1.74910250E-01 8.17349386E-02 1.45166290E-02 2.12377034E-03
 INPUT CARD> 5  5-1.15539281E-02                                                            
 INPUT CARD> 6  1 8.04465806E-02-7.18522833E-02-1.66261869E-01-1.87294360E-01-6.34460222E-02
 INPUT CARD> 6  2 3.00241871E-01 1.35692532E-02 3.25890981E-02-1.69856270E-02 7.46324992E-04
 INPUT CARD> 6  3-5.55525131E-04-1.23038838E-02 2.43567540E-02 1.84191476E-03-1.70815476E-02
  500000000 WORDS OF MEMORY AVAILABLE

     BASIS OPTIONS
     -------------
     GBASIS=CCT          IGAUSS=       0      POLAR=NONE    
     NDFUNC=       0     NFFUNC=       0     DIFFSP=       F
     NPFUNC=       0      DIFFS=       F     BASNAM=        


     RUN TITLE
     ---------
  C3H4                                                                           

 THE POINT GROUP OF THE MOLECULE IS C1      
 THE ORDER OF THE PRINCIPAL AXIS IS     0

 ATOM      ATOMIC                      COORDINATES (BOHR)
           CHARGE         X                   Y                   Z
 CARBON      6.0     0.0007884901        0.0443666182       -1.3739725471
 CARBON      6.0    -1.5335932037        0.7404506459        0.8254782960
 CARBON      6.0     1.5350261546        0.7406044715        0.8247056967
 HYDROGEN    1.0     0.0028898729       -1.7989660692       -2.2784626753
 HYDROGEN    1.0    -0.0037981640        1.5964981511       -2.7720609987
 HYDROGEN    1.0    -2.7462662163       -0.6602883826        1.7091676434
 HYDROGEN    1.0     2.7449530646       -0.6626654311        1.7083275505

          INTERNUCLEAR DISTANCES (ANGS.)
          ------------------------------

                1 CARB       2 CARB       3 CARB       4 HYDR       5 HYDR  

   1 CARB    0.0000000    1.4661595 *  1.4658132 *  1.0865521 *  1.1054340 *
   2 CARB    1.4661595 *  0.0000000    1.6238436 *  2.2726217 *  2.1177260 *
   3 CARB    1.4658132 *  1.6238436 *  0.0000000    2.2715524 *  2.1191725 *
   4 HYDR    1.0865521 *  2.2726217 *  2.2715524 *  0.0000000    1.8156920 *
   5 HYDR    1.1054340 *  2.1177260 *  2.1191725 *  1.8156920 *  0.0000000  
   6 HYDR    2.2167791 *  1.0862389 *  2.4292774 *  2.6329236 *  3.0258403  
   7 HYDR    2.2156613 *  2.4281173 *  1.0862808 *  2.6302072 *  3.0275846  

                6 HYDR       7 HYDR  

   1 CARB    2.2167791 *  2.2156613 *
   2 CARB    1.0862389 *  2.4281173 *
   3 CARB    2.4292774 *  1.0862808 *
   4 HYDR    2.6329236 *  2.6302072 *
   5 HYDR    3.0258403    3.0275846  
   6 HYDR    0.0000000    2.9058286 *
   7 HYDR    2.9058286 *  0.0000000  

  * ... LESS THAN  3.000


     ATOMIC BASIS SET
     ----------------
 THE CONTRACTED PRIMITIVE FUNCTIONS HAVE BEEN UNNORMALIZED
 THE CONTRACTED BASIS FUNCTIONS ARE NOW NORMALIZED TO UNITY

  SHELL TYPE  PRIMITIVE        EXPONENT          CONTRACTION COEFFICIENT(S)

 CARBON    

      1   S       1          8236.0000000    0.000542430189
      1   S       2          1235.0000000    0.004196427901
      1   S       3           280.8000000    0.021540914108
      1   S       4            79.2700000    0.083614949614
      1   S       5            25.5900000    0.239871618922
      1   S       6             8.9970000    0.443751820060
      1   S       7             3.3190000    0.353579696469
      1   S       8             0.3643000   -0.009176366076

      2   S       9          8236.0000000   -0.000196392234
      2   S      10          1235.0000000   -0.001525950274
      2   S      11           280.8000000   -0.007890449028
      2   S      12            79.2700000   -0.031514870532
      2   S      13            25.5900000   -0.096910008320
      2   S      14             8.9970000   -0.220541526288
      2   S      15             3.3190000   -0.296069112937
      2   S      16             0.3643000    1.040503432950

      3   S      17             0.9059000    1.000000000000

      4   S      18             0.1285000    1.000000000000

      5   P      19            18.7100000    0.039426387165
      5   P      20             4.1330000    0.244088984924
      5   P      21             1.2000000    0.815492008943

      6   P      22             0.3827000    1.000000000000

      7   P      23             0.1209000    1.000000000000

      8   D      24             1.0970000    1.000000000000

      9   D      25             0.3180000    1.000000000000

     10   F      26             0.7610000    1.000000000000

 CARBON    

     11   S      27          8236.0000000    0.000542430189
     11   S      28          1235.0000000    0.004196427901
     11   S      29           280.8000000    0.021540914108
     11   S      30            79.2700000    0.083614949614
     11   S      31            25.5900000    0.239871618922
     11   S      32             8.9970000    0.443751820060
     11   S      33             3.3190000    0.353579696469
     11   S      34             0.3643000   -0.009176366076

     12   S      35          8236.0000000   -0.000196392234
     12   S      36          1235.0000000   -0.001525950274
     12   S      37           280.8000000   -0.007890449028
     12   S      38            79.2700000   -0.031514870532
     12   S      39            25.5900000   -0.096910008320
     12   S      40             8.9970000   -0.220541526288
     12   S      41             3.3190000   -0.296069112937
     12   S      42             0.3643000    1.040503432950

     13   S      43             0.9059000    1.000000000000

     14   S      44             0.1285000    1.000000000000

     15   P      45            18.7100000    0.039426387165
     15   P      46             4.1330000    0.244088984924
     15   P      47             1.2000000    0.815492008943

     16   P      48             0.3827000    1.000000000000

     17   P      49             0.1209000    1.000000000000

     18   D      50             1.0970000    1.000000000000

     19   D      51             0.3180000    1.000000000000

     20   F      52             0.7610000    1.000000000000

 CARBON    

     21   S      53          8236.0000000    0.000542430189
     21   S      54          1235.0000000    0.004196427901
     21   S      55           280.8000000    0.021540914108
     21   S      56            79.2700000    0.083614949614
     21   S      57            25.5900000    0.239871618922
     21   S      58             8.9970000    0.443751820060
     21   S      59             3.3190000    0.353579696469
     21   S      60             0.3643000   -0.009176366076

     22   S      61          8236.0000000   -0.000196392234
     22   S      62          1235.0000000   -0.001525950274
     22   S      63           280.8000000   -0.007890449028
     22   S      64            79.2700000   -0.031514870532
     22   S      65            25.5900000   -0.096910008320
     22   S      66             8.9970000   -0.220541526288
     22   S      67             3.3190000   -0.296069112937
     22   S      68             0.3643000    1.040503432950

     23   S      69             0.9059000    1.000000000000

     24   S      70             0.1285000    1.000000000000

     25   P      71            18.7100000    0.039426387165
     25   P      72             4.1330000    0.244088984924
     25   P      73             1.2000000    0.815492008943

     26   P      74             0.3827000    1.000000000000

     27   P      75             0.1209000    1.000000000000

     28   D      76             1.0970000    1.000000000000

     29   D      77             0.3180000    1.000000000000

     30   F      78             0.7610000    1.000000000000

 HYDROGEN  

     31   S      79            33.8700000    0.025494863235
     31   S      80             5.0950000    0.190362765893
     31   S      81             1.1590000    0.852162022245

     32   S      82             0.3258000    1.000000000000

     33   S      83             0.1027000    1.000000000000

     34   P      84             1.4070000    1.000000000000

     35   P      85             0.3880000    1.000000000000

     36   D      86             1.0570000    1.000000000000

 HYDROGEN  

     37   S      87            33.8700000    0.025494863235
     37   S      88             5.0950000    0.190362765893
     37   S      89             1.1590000    0.852162022245

     38   S      90             0.3258000    1.000000000000

     39   S      91             0.1027000    1.000000000000

     40   P      92             1.4070000    1.000000000000

     41   P      93             0.3880000    1.000000000000

     42   D      94             1.0570000    1.000000000000

 HYDROGEN  

     43   S      95            33.8700000    0.025494863235
     43   S      96             5.0950000    0.190362765893
     43   S      97             1.1590000    0.852162022245

     44   S      98             0.3258000    1.000000000000

     45   S      99             0.1027000    1.000000000000

     46   P     100             1.4070000    1.000000000000

     47   P     101             0.3880000    1.000000000000

     48   D     102             1.0570000    1.000000000000

 HYDROGEN  

     49   S     103            33.8700000    0.025494863235
     49   S     104             5.0950000    0.190362765893
     49   S     105             1.1590000    0.852162022245

     50   S     106             0.3258000    1.000000000000

     51   S     107             0.1027000    1.000000000000

     52   P     108             1.4070000    1.000000000000

     53   P     109             0.3880000    1.000000000000

     54   D     110             1.0570000    1.000000000000

 TOTAL NUMBER OF BASIS SET SHELLS             =   54
 NUMBER OF CARTESIAN GAUSSIAN BASIS FUNCTIONS =  165
 NOTE: THIS RUN WILL RESTRICT THE MO VARIATION SPACE TO SPHERICAL HARMONICS.
 THE NUMBER OF ORBITALS KEPT IN THE VARIATIONAL SPACE WILL BE PRINTED LATER.
 NUMBER OF ELECTRONS                          =   22
 CHARGE OF MOLECULE                           =    0
 SPIN MULTIPLICITY                            =    3
 NUMBER OF OCCUPIED ORBITALS (ALPHA)          =   12
 NUMBER OF OCCUPIED ORBITALS (BETA )          =   10
 TOTAL NUMBER OF ATOMS                        =    7
 THE NUCLEAR REPULSION ENERGY IS       61.8594520491

     LEBEDEV GRID-BASED DFT OPTIONS
     ------------------------------
     DFTTYP=B3LYP   
     NRAD  =      96     NLEB  =     302
     NRAD0 =      96     NLEB0 =     302
     SWOFF =    5.00E-03 (PURE SCF -> DFT)
     SWITCH=    3.00E-04 (COARSE -> TIGHT GRID)
     THRESH=    0.00E+00 GTHRE=    1.00E+00

 GRIMME'S EMPIRICAL DISPERSION CORRECTION= T
  ________________________________
 
           DFTD3 V1.2             
   S.GRIMME, UNIVERSITY MUENSTER  
   WED MAR 10 08:38:00 CET 2010   
  ________________________________
 
 PLEASE CITE DFT-D3 WORK DONE WITH THIS CODE AS:
 S. GRIMME, J. ANTONY, S. EHRLICH AND H. KRIEG,
 J. CHEM. PHYS, 132 (2010), 154104.
 IF USED WITH BJ-DAMPING CITE ALSO
 S. GRIMME, S. EHRLICH AND L. GOERIGK,
 J. COMPUT. CHEM. 32 (2011), 1456-1465
 
 DFT-D3 PARAMETERS WILL BE LOADED AND PRINTED
 BEFORE THE RESULTS
 
 IMPLEMENTATION OF DFT-D IN GAMESS BY:
 R.PEVERATI AND K.K.BALDRIDGE, 
 J.CHEM.THEORY COMPUT. 4,(2008), 2030-2048
 

     $CONTRL OPTIONS
     ---------------
 SCFTYP=UHF          RUNTYP=IRC          EXETYP=RUN     
 MPLEVL=       0     CITYP =NONE         CCTYP =NONE         VBTYP =NONE    
 DFTTYP=B3LYP        TDDFT =NONE    
 MULT  =       3     ICHARG=       0     NZVAR =       0     COORD =UNIQUE  
 PP    =NONE         RELWFN=NONE         LOCAL =NONE         NUMGRD=       F
 ISPHER=       1     NOSYM =       0     MAXIT =     200     UNITS =ANGS    
 PLTORB=       F     MOLPLT=       F     AIMPAC=       F     FRIEND=        
 NPRINT=       7     IREST =       0     GEOM  =INPUT   
 NORMF =       0     NORMP =       0     ITOL  =      20     ICUT  =       9
 INTTYP=BEST         GRDTYP=BEST         QMTTOL= 1.0E-06

     $SYSTEM OPTIONS
     ---------------
  REPLICATED MEMORY=   500000000 WORDS (ON EVERY NODE).
 DISTRIBUTED MEMDDI=           0 MILLION WORDS IN AGGREGATE,
 MEMDDI DISTRIBUTED OVER  12 PROCESSORS IS           0 WORDS/PROCESSOR.
 TOTAL MEMORY REQUESTED ON EACH PROCESSOR=   500000000 WORDS.
 TIMLIM=      525600.00 MINUTES, OR     365.0 DAYS.
 PARALL= T  BALTYP=  DLB     KDIAG=    0  COREFL= F
 MXSEQ2=     300 MXSEQ3=     150  mem10=         0

          ----------------
          PROPERTIES INPUT
          ----------------

     MOMENTS            FIELD           POTENTIAL          DENSITY
 IEMOM =       1   IEFLD =       0   IEPOT =       0   IEDEN =       0
 WHERE =COMASS     WHERE =NUCLEI     WHERE =NUCLEI     WHERE =NUCLEI  
 OUTPUT=BOTH       OUTPUT=BOTH       OUTPUT=BOTH       OUTPUT=BOTH    
 IEMINT=       0   IEFINT=       0                     IEDINT=       0
                                                       MORB  =       0
          EXTRAPOLATION IN EFFECT
          DAMPING IN EFFECT
          LEVEL SHIFTING IN EFFECT
          DIIS IN EFFECT
          DIIS or SOSCF will be reset if energy rises
 ORBITAL PRINTING OPTION: NPREO=     1   165     2     1

     -------------------------------
     INTEGRAL TRANSFORMATION OPTIONS
     -------------------------------
     NWORD  =            0
     CUTOFF = 1.0E-09     MPTRAN =       0
     DIRTRF =       T     AOINTS =DUP     

          ----------------------
          INTEGRAL INPUT OPTIONS
          ----------------------
 NOPK  =       1 NORDER=       0 SCHWRZ=       T

     ------------------------------------------
     THE POINT GROUP IS C1 , NAXIS= 0, ORDER= 1
     ------------------------------------------

 -- VARIATIONAL SPACE WILL BE RESTRICTED TO PURE SPHERICAL HARMONICS ONLY --
 AFTER EXCLUDING CONTAMINANT COMBINATIONS FROM THE CARTESIAN GAUSSIAN BASIS
 SET, THE NUMBER OF SPHERICAL HARMONICS KEPT IN THE VARIATION SPACE IS  146

     DIMENSIONS OF THE SYMMETRY SUBSPACES ARE
 A   =  146

 ..... DONE SETTING UP THE RUN .....
 CPU     0: STEP CPU TIME=     0.05 TOTAL CPU TIME=          0.0 (      0.0 MIN)
 TOTAL WALL CLOCK TIME=          0.1 SECONDS, CPU UTILIZATION IS    38.46%

          -----------------------------
          INTRINSIC REACTION COORDINATE
          -----------------------------
          PACE   =GS2     
          STRIDE = 0.10000 BOHR*SQRT(AMU)
          NPOINT =      40
          NEXTPT =       0
          STOTAL =  0.0000 BOHR*SQRT(AMU)
          SAB    =  0.0000 BOHR*SQRT(AMU)
          NPRT   =       0
          NPUN   =       0

          SADDLE =       F
          TSENGY =       F
          FORWRD =       T
          EVIB   = 0.00050 HARTREE
          FREQ   =     0.0 CM**-1

          STABLZ =       F
          ELBOW  =  175.00 DEGREES
          DELTA  = 0.02500 BOHR

          READQB =       F
          EB     =        0.0000000000 HARTREES
          GBNORM =        0.0000000000 HARTREES/SQRT(AMU)-BOHR

          GCUT   = 0.0000500 HARTREES/SQRT(AMU)-BOHR
          RCUT   = 0.0005000 BOHR
          ACUT   =    5.00 DEGREES
          MXOPT  =      20
          IHUPD  =       2

 ATOMIC MASSES USED (IN AMU) ARE
     CARBON        12.0000
     CARBON        12.0000
     CARBON        12.0000
     HYDROGEN       1.0078
     HYDROGEN       1.0078
     HYDROGEN       1.0078
     HYDROGEN       1.0078
 WARNING! GRADIENTS FROM PREVIOUS IRC POINT NOT FOUND IN $IRC GROUP. GENERATING NEW GRADIENTS AT CURRENT POINT

1         POINT   0 ON THE REACTION PATH
          ******************************
          AT PATH DISTANCE STOTAL =   0.00000     SQRT(AMU)-BOHR
          TOTAL ENERGY            =     0.0000000 HARTREE
 COORDINATES OF SYMMETRY UNIQUE ATOMS (ANGS)
   ATOM   CHARGE       X              Y              Z
 ------------------------------------------------------------
 CARBON      6.0   0.0004172510   0.0234778050  -0.7270750130
 CARBON      6.0  -0.8115426330   0.3918296360   0.4368243340
 CARBON      6.0   0.8123009180   0.3919110370   0.4364154920
 HYDROGEN    1.0   0.0015292550  -0.9519719160  -1.2057106110
 HYDROGEN    1.0  -0.0020099020   0.8448305000  -1.4669116140
 HYDROGEN    1.0  -1.4532616020  -0.3494095900   0.9044526320
 HYDROGEN    1.0   1.4525667120  -0.3506674700   0.9040080740

          INTERNUCLEAR DISTANCES (ANGS.)
          ------------------------------

                1 CARB       2 CARB       3 CARB       4 HYDR       5 HYDR  

   1 CARB    0.0000000    1.4661595 *  1.4658132 *  1.0865521 *  1.1054340 *
   2 CARB    1.4661595 *  0.0000000    1.6238436 *  2.2726217 *  2.1177260 *
   3 CARB    1.4658132 *  1.6238436 *  0.0000000    2.2715524 *  2.1191725 *
   4 HYDR    1.0865521 *  2.2726217 *  2.2715524 *  0.0000000    1.8156920 *
   5 HYDR    1.1054340 *  2.1177260 *  2.1191725 *  1.8156920 *  0.0000000  
   6 HYDR    2.2167791 *  1.0862389 *  2.4292774 *  2.6329236 *  3.0258403  
   7 HYDR    2.2156613 *  2.4281173 *  1.0862808 *  2.6302072 *  3.0275846  

                6 HYDR       7 HYDR  

   1 CARB    2.2167791 *  2.2156613 *
   2 CARB    1.0862389 *  2.4281173 *
   3 CARB    2.4292774 *  1.0862808 *
   4 HYDR    2.6329236 *  2.6302072 *
   5 HYDR    3.0258403    3.0275846  
   6 HYDR    0.0000000    2.9058286 *
   7 HYDR    2.9058286 *  0.0000000  

  * ... LESS THAN  3.000


          ********************
          1 ELECTRON INTEGRALS
          ********************
 ...... END OF ONE-ELECTRON INTEGRALS ......
 CPU     0: STEP CPU TIME=     0.00 TOTAL CPU TIME=          0.0 (      0.0 MIN)
 TOTAL WALL CLOCK TIME=          0.2 SECONDS, CPU UTILIZATION IS    31.25%

          -------------
          GUESS OPTIONS
          -------------
          GUESS =HUCKEL            NORB  =       0          NORDER=       0
          MIX   =       F          PRTMO =       F          PUNMO =       F
          TOLZ  = 1.0E-08          TOLE  = 1.0E-05
          SYMDEN=       F          PURIFY=       F

 INITIAL GUESS ORBITALS GENERATED BY HUCKEL   ROUTINE.
 HUCKEL GUESS REQUIRES    201762 WORDS.

 STATISTICS FOR GENERATION OF SYMMETRY ORBITAL -Q- MATRIX
 NUMBER OF CARTESIAN ATOMIC ORBITALS=        165
 NUMBER OF SPHERICAL CONTAMINANTS DROPPED=    19
 NUMBER OF LINEARLY DEPENDENT MOS DROPPED=     0
 TOTAL NUMBER OF MOS IN VARIATION SPACE=     146

 SYMMETRIES FOR INITIAL GUESS ORBITALS FOLLOW.  ALPHA SET(S).
    12 ORBITALS ARE OCCUPIED (    3 CORE ORBITALS).
     4=A        5=A        6=A        7=A        8=A        9=A       10=A   
    11=A       12=A       13=A       14=A       15=A       16=A       17=A   
    18=A       19=A       20=A       21=A       22=A   

 SYMMETRIES FOR INITIAL GUESS ORBITALS FOLLOW.   BETA SET(S).
    10 ORBITALS ARE OCCUPIED (    3 CORE ORBITALS).
     4=A        5=A        6=A        7=A        8=A        9=A       10=A   
    11=A       12=A       13=A       14=A       15=A       16=A       17=A   
    18=A       19=A       20=A   
 ...... END OF INITIAL ORBITAL SELECTION ......
 CPU     0: STEP CPU TIME=     0.05 TOTAL CPU TIME=          0.1 (      0.0 MIN)
 TOTAL WALL CLOCK TIME=          0.2 SECONDS, CPU UTILIZATION IS    45.45%

                    ----------------------
                    AO INTEGRAL TECHNOLOGY
                    ----------------------
     S,P,L SHELL ROTATED AXIS INTEGRALS, REPROGRAMMED BY
        KAZUYA ISHIMURA (IMS) AND JOSE SIERRA (SYNSTAR).
     S,P,D,L SHELL ROTATED AXIS INTEGRALS PROGRAMMED BY
        KAZUYA ISHIMURA (INSTITUTE FOR MOLECULAR SCIENCE).
     S,P,D,F,G SHELL TO TOTAL QUARTET ANGULAR MOMENTUM SUM 5,
        ERIC PROGRAM BY GRAHAM FLETCHER (ELORET AND NASA ADVANCED
        SUPERCOMPUTING DIVISION, AMES RESEARCH CENTER).
     S,P,D,F,G,L SHELL GENERAL RYS QUADRATURE PROGRAMMED BY
        MICHEL DUPUIS (PACIFIC NORTHWEST NATIONAL LABORATORY).

          --------------------
          2 ELECTRON INTEGRALS
          --------------------

 DIRECT SCF METHOD SKIPS INTEGRAL STORAGE ON DISK.
 DIRECT TRANSFORMATION SKIPS AO INTEGRAL STORAGE ON DISK.
  ...... END OF TWO-ELECTRON INTEGRALS .....
 CPU     0: STEP CPU TIME=     0.01 TOTAL CPU TIME=          0.1 (      0.0 MIN)
 TOTAL WALL CLOCK TIME=          0.2 SECONDS, CPU UTILIZATION IS    47.83%

          ---------------------------
              U-B3LYP SCF CALCULATION
          ---------------------------

     NUCLEAR ENERGY =        61.8594520491
     MAXIT =200     NPUNCH=  2     MULT=  3
     EXTRAP=T  DAMP=T  SHIFT=T  RSTRCT=F  DIIS=T  SOSCF=F
         DENSITY MATRIX CONVERGENCE THRESHOLD=  2.00E-05
     COARSE -> FINE DFT GRID SWITCH THRESHOLD=  3.00E-04 (SWITCH IN $DFT)
                   HF -> DFT SWITCH THRESHOLD=  5.00E-03 (SWOFF IN $DFT)
     MEMORY REQUIRED FOR UHF/ROHF ITERS=    636525 WORDS.

 DIRECT SCF CALCULATION, SCHWRZ=T   FDIFF=T
 SCHWARZ INEQUALITY OVERHEAD:     13695 INTEGRALS, T=        0.00

     EXCHANGE FUNCTIONAL   =B88&HFX   
     CORRELATION FUNCTIONAL=LYP88&VWN5
     DFT THRESHOLD         =.493E-08
 FOR AN EULER-MACLAURIN QUADRATURE USING  96 RADIAL POINTS:
 SMALLEST GAUSSIAN PRIMITIVE EXPONENT=        0.1027000000 OF TYPE -S-
 ON ATOM NUMBER   4 HAS RADIAL NORMALIZATION=  1.000000
  LARGEST GAUSSIAN PRIMITIVE EXPONENT=     8236.0000000000 OF TYPE -S-
 ON ATOM NUMBER   1 HAS RADIAL NORMALIZATION=  1.000000
 DFT IS SWITCHED OFF, PERFORMING PURE SCF UNTIL SWOFF THRESHOLD IS REACHED.

                                                                                                                NONZERO     BLOCKS
 ITER EX      TOTAL ENERGY        E CHANGE  DENSITY CHANGE    DIIS ERROR      VIR. SHIFT       DAMPING        INTEGRALS    SKIPPED
          * * *   INITIATING DIIS PROCEDURE   * * *
   1  0     -115.3665260949  -115.3665260949   0.545429472   0.275047806     0.000000000     1.000000000       90981393      21147
   2  1     -115.7490218206    -0.3824957257   0.050949238   0.057492944     0.000000000     1.000000000       91020504      22015
   3  2     -115.7801488940    -0.0311270734   0.023462207   0.028557379     0.000000000     1.000000000       90203326      33976
   4  3     -115.7865277298    -0.0063788358   0.006779444   0.009528752     0.000000000     1.000000000       89290368      46965
   5  4     -115.7875583813    -0.0010306515   0.002526640   0.002961362     0.000000000     1.000000000       88731910      52240
 CONVERGED TO SWOFF, SO DFT CALCULATION IS NOW SWITCHED ON.
          * * *   INITIATING DIIS PROCEDURE   * * *
   6  5     -116.4505029718    -0.6629445905   0.035938549   0.052631365       90735249      23978
   7  6     -116.4704243816    -0.0199214098   0.016165694   0.019664082       90142661      33097
   8  7     -116.4707315664    -0.0003071847   0.007656620   0.019261368       89283334      45368
   9  8     -116.4722616009    -0.0015300345   0.001138646   0.001714473       88686975      52803
  10  9     -116.4722865989    -0.0000249980   0.000552021   0.000383127       87167056      72108
  11 10     -116.4722902847    -0.0000036858   0.000173215   0.000161364       85990898      85148
  12 11     -116.4722906030    -0.0000003183   0.000064553   0.000105915       83878024     109415
  13 12     -116.4722907309    -0.0000001279   0.000028937   0.000025708       82048981     133567
  14 13     -116.4722907467    -0.0000000158   0.000011799   0.000011731       80556975     149265
  15 14     -116.4722907487    -0.0000000019   0.000007197   0.000006709       75868051     202181

          -----------------
          DENSITY CONVERGED
          -----------------
     TIME TO FORM FOCK OPERATORS=      13.8 SECONDS (       0.9 SEC/ITER)
     FOCK TIME ON FIRST ITERATION=       0.6, LAST ITERATION=       1.0
     TIME TO SOLVE SCF EQUATIONS=       0.5 SECONDS (       0.0 SEC/ITER)

          ----------------------------
          DFT-D PARAMETERS AND RESULTS
          ----------------------------
 C6 COEFFICIENTS USED:
       2 C6 FOR ELEMENT   1
  Z=  1 CN= 0.912     C6(AA)=    3.03
  Z=  1 CN= 0.000     C6(AA)=    7.59
       5 C6 FOR ELEMENT   6
  Z=  6 CN= 0.000     C6(AA)=   49.11
  Z=  6 CN= 0.987     C6(AA)=   43.25
  Z=  6 CN= 1.998     C6(AA)=   29.36
  Z=  6 CN= 2.999     C6(AA)=   25.78
  Z=  6 CN= 3.984     C6(AA)=   18.21

 #          XYZ [AU]             R0(AA) [ANG.]  CN         C6(AA)     C8(AA)   C10(AA) [AU]
  1   0.00079   0.04437  -1.37397    6  1.455  3.985        18.3       530.4     18793.2
  2  -1.53359   0.74045   0.82548    6  1.455  2.976        25.7       743.7     26348.5
  3   1.53503   0.74060   0.82471    6  1.455  2.976        25.7       743.7     26348.5
  4   0.00289  -1.79897  -2.27846    1  1.091  0.999         3.1        37.4       553.3
  5  -0.00380   1.59650  -2.77206    1  1.091  1.001         3.1        37.4       553.1
  6  -2.74627  -0.66029   1.70917    1  1.091  0.998         3.1        37.4       553.4
  7   2.74495  -0.66267   1.70833    1  1.091  0.998         3.1        37.4       553.4

     MOLECULAR C6(AA) [AU] =       459.24

           DFT-D V3(BJ)
 
 FUNCTIONAL: B3LYP   
 
 PARAMETERS
 S6       :    1.0000
 RS6      :    1.2610
 S18      :    1.7030
 RS18     :    1.0000
 ALPHA6   :   14.0000
 ALPHA8   :   16.0000
 K1-K3    :   16.0000    1.3333    4.0000
 
 EDISP /KCAL,AU:    -0.9644 -0.00153686

 E6    /KCAL :    -0.0991
 E8    /KCAL :    -0.8653
 % E8        : 89.72

 FINAL U-B3LYP ENERGY IS     -116.4738276119 AFTER  15 ITERATIONS
 DFT EXCHANGE + CORRELATION ENERGY =       -14.2115791268
 TOTAL ELECTRON NUMBER             =        21.9999866899
 GRIMME'S DISPERSION ENERGY                     =       -0.0015368632
 ENERGY WITHOUT GRIMME'S DISPERSION CORRECTION IS     -116.4722907487

          --------------------
          SPIN SZ   =    1.000
          S-SQUARED =    2.006
          --------------------

  ----- ALPHA SET ----- 

          ------------
          EIGENVECTORS
          ------------

                      1          2          3          4          5
                  -10.2158   -10.2157   -10.1883    -0.8623    -0.5975
                     A          A          A          A          A   
    1  C  1  S    0.008318   0.000976   0.979538  -0.025881   0.000033
    2  C  1  S   -0.000319  -0.000042   0.012834   0.297881  -0.000552
    3  C  1  S    0.001740   0.000205   0.050592   0.069470  -0.000142
    4  C  1  S   -0.004711  -0.000577   0.027533   0.077475  -0.000168
    5  C  1  X   -0.000064   0.000554  -0.000001   0.000001   0.090199
    6  C  1  Y    0.000106   0.000013   0.000198   0.023623  -0.000116
    7  C  1  Z    0.000832   0.000098   0.000505   0.068310   0.000308
    8  C  1  X    0.000221  -0.001932   0.000002  -0.000024   0.099710
    9  C  1  Y   -0.000720  -0.000087  -0.001371   0.021330  -0.000114
   10  C  1  Z   -0.003245  -0.000395  -0.004960   0.063117   0.000295
   11  C  1  X    0.000379  -0.003228   0.000001  -0.000009   0.025973
   12  C  1  Y   -0.000285  -0.000038   0.000560  -0.005554  -0.000002
   13  C  1  Z   -0.001995  -0.000247   0.001851   0.000858   0.000154
   14  C  1 XX   -0.000078  -0.000009  -0.001465  -0.004927   0.000010
   15  C  1 YY    0.000069   0.000009   0.000943  -0.003110  -0.000018
   16  C  1 ZZ    0.000009   0.000001   0.000522   0.008037   0.000008
   17  C  1 XY    0.000007  -0.000057  -0.000006  -0.000012   0.002067
   18  C  1 XZ    0.000021  -0.000195   0.000003   0.000010   0.009910
   19  C  1 YZ    0.000003  -0.000001   0.000299   0.004499   0.000011
   20  C  1 XX   -0.000112  -0.000014  -0.003359  -0.007633   0.000000
   21  C  1 YY    0.002755   0.000328   0.003128  -0.004582  -0.000017
   22  C  1 ZZ   -0.002643  -0.000313   0.000230   0.012216   0.000016
   23  C  1 XY    0.000079  -0.000743  -0.000009  -0.000015   0.000358
   24  C  1 XZ    0.000308  -0.002658   0.000009   0.000006   0.012060
   25  C  1 YZ   -0.001344  -0.000159   0.000120   0.004366   0.000010
   26  C  1 XXX  -0.000050   0.000434   0.000001   0.000003  -0.000865
   27  C  1 YYY   0.000530   0.000062  -0.000961  -0.004518   0.000004
   28  C  1 ZZZ  -0.000045  -0.000006   0.000939   0.003049   0.000006
   29  C  1 XXY  -0.000186  -0.000023   0.000275   0.000292  -0.000002
   30  C  1 XXZ  -0.000567  -0.000066   0.001111   0.002492  -0.000006
   31  C  1 YYX  -0.000073   0.000629  -0.000000   0.000001  -0.001201
   32  C  1 YYZ   0.000628   0.000073  -0.002372  -0.006583  -0.000002
   33  C  1 ZZX   0.000141  -0.001212  -0.000001  -0.000005   0.002362
   34  C  1 ZZY  -0.000525  -0.000061   0.001014   0.005769  -0.000003
   35  C  1 XYZ   0.000077  -0.000668   0.000008   0.000009   0.000557
   36  C  2  S    0.765516  -0.606216  -0.006520  -0.020810   0.015777
   37  C  2  S    0.005795  -0.003859  -0.000472   0.254911  -0.308280
   38  C  2  S    0.040549  -0.031758   0.000590   0.063074  -0.079970
   39  C  2  S    0.010508  -0.014979  -0.007541   0.080904  -0.178446
   40  C  2  X    0.000718  -0.000343   0.000332   0.059243   0.065078
   41  C  2  Y   -0.000155   0.000013  -0.000167  -0.019641   0.041025
   42  C  2  Z   -0.000357   0.000243  -0.000435  -0.039010   0.004811
   43  C  2  X   -0.003002   0.003938  -0.001092   0.058631   0.067519
   44  C  2  Y   -0.005593   0.005081   0.000472  -0.024308   0.040317
   45  C  2  Z    0.001827  -0.001271   0.001486  -0.037762   0.014086
   46  C  2  X   -0.000869  -0.000699  -0.001629   0.007545   0.016553
   47  C  2  Y   -0.002256   0.003152   0.000958  -0.003936   0.012078
   48  C  2  Z    0.000037   0.000146   0.002746  -0.006732   0.007222
   49  C  2 XX    0.000248   0.000146   0.000064   0.004812   0.004374
   50  C  2 YY    0.000111  -0.000232   0.000085  -0.003360  -0.003304
   51  C  2 ZZ   -0.000358   0.000086  -0.000149  -0.001452  -0.001070
   52  C  2 XY    0.000424  -0.000403   0.000057  -0.002503  -0.001543
   53  C  2 XZ   -0.000913   0.000695   0.000187  -0.007224   0.004072
   54  C  2 YZ   -0.000493   0.000357  -0.000088   0.000497   0.001943
   55  C  2 XX   -0.000499   0.000112  -0.000139   0.006173   0.004248
   56  C  2 YY    0.000770  -0.000499   0.000869  -0.004037  -0.003223
   57  C  2 ZZ   -0.000272   0.000387  -0.000730  -0.002137  -0.001025
   58  C  2 XY    0.001846  -0.002288   0.000356  -0.001887   0.000605
   59  C  2 XZ   -0.001575   0.002155   0.001524  -0.008626   0.006800
   60  C  2 YZ   -0.001191   0.001496  -0.000463  -0.001538   0.001174
   61  C  2 XXX   0.000028  -0.000438   0.000358   0.002181   0.000409
   62  C  2 YYY   0.000287  -0.000318  -0.000539   0.001947  -0.000532
   63  C  2 ZZZ  -0.000407   0.000429   0.000149  -0.000183   0.001560
   64  C  2 XXY  -0.000213   0.000399   0.000166  -0.002290  -0.000449
   65  C  2 XXZ   0.000005  -0.000131   0.000135  -0.001626  -0.000829
   66  C  2 YYX  -0.000388   0.000734   0.000194  -0.003585   0.001275
   67  C  2 YYZ   0.000541  -0.000445  -0.000334   0.001871  -0.001264
   68  C  2 ZZX   0.000350  -0.000146  -0.000674   0.000659  -0.001824
   69  C  2 ZZY  -0.000172   0.000028   0.000558  -0.000322   0.001162
   70  C  2 XYZ   0.000751  -0.000746  -0.000655   0.002639  -0.002138
   71  C  3  S    0.606547   0.765260  -0.006543  -0.020820  -0.015810
   72  C  3  S    0.004761   0.005091  -0.000475   0.254943   0.308834
   73  C  3  S    0.032207   0.040190   0.000590   0.063076   0.080109
   74  C  3  S    0.006769   0.017021  -0.007534   0.080990   0.178567
   75  C  3  X   -0.000621  -0.000498  -0.000332  -0.059275   0.064899
   76  C  3  Y   -0.000148  -0.000047  -0.000166  -0.019690  -0.041251
   77  C  3  Z   -0.000290  -0.000316  -0.000436  -0.038988  -0.004590
   78  C  3  X    0.002003   0.004500   0.001103  -0.058661   0.067310
   79  C  3  Y   -0.004281  -0.006240   0.000468  -0.024382  -0.040572
   80  C  3  Z    0.001482   0.001640   0.001501  -0.037712  -0.013790
   81  C  3  X    0.001009  -0.000499   0.001631  -0.007600   0.016530
   82  C  3  Y   -0.001472  -0.003591   0.000948  -0.003936  -0.012137
   83  C  3  Z    0.000075  -0.000148   0.002754  -0.006754  -0.007081
   84  C  3 XX    0.000273  -0.000088   0.000064   0.004815  -0.004360
   85  C  3 YY    0.000056   0.000253   0.000085  -0.003353   0.003322
   86  C  3 ZZ   -0.000329  -0.000166  -0.000149  -0.001462   0.001038
   87  C  3 XY   -0.000319  -0.000489  -0.000058   0.002509  -0.001530
   88  C  3 XZ    0.000729   0.000887  -0.000188   0.007227   0.004076
   89  C  3 YZ   -0.000398  -0.000459  -0.000089   0.000506  -0.001937
   90  C  3 XX   -0.000465  -0.000229  -0.000137   0.006185  -0.004208
   91  C  3 YY    0.000639   0.000665   0.000875  -0.004035   0.003245
   92  C  3 ZZ   -0.000174  -0.000436  -0.000739  -0.002150   0.000963
   93  C  3 XY   -0.001268  -0.002645  -0.000361   0.001887   0.000631
   94  C  3 XZ    0.001035   0.002462  -0.001526   0.008640   0.006794
   95  C  3 YZ   -0.000819  -0.001727  -0.000465  -0.001532  -0.001162
   96  C  3 XXX   0.000072  -0.000433  -0.000359  -0.002184   0.000402
   97  C  3 YYY   0.000204   0.000374  -0.000540   0.001951   0.000537
   98  C  3 ZZZ  -0.000297  -0.000511   0.000149  -0.000180  -0.001558
   99  C  3 XXY  -0.000113  -0.000435   0.000166  -0.002292   0.000444
  100  C  3 XXZ  -0.000028   0.000126   0.000135  -0.001628   0.000827
  101  C  3 YYX   0.000211   0.000805  -0.000194   0.003586   0.001279
  102  C  3 YYZ   0.000427   0.000559  -0.000336   0.001870   0.001264
  103  C  3 ZZX  -0.000307  -0.000224   0.000676  -0.000657  -0.001818
  104  C  3 ZZY  -0.000161  -0.000067   0.000559  -0.000325  -0.001165
  105  C  3 XYZ  -0.000559  -0.000899   0.000654  -0.002646  -0.002142
  106  H  4  S    0.000252   0.000029   0.000092   0.031989  -0.000103
  107  H  4  S   -0.001565  -0.000189  -0.013429   0.023488  -0.000131
  108  H  4  S   -0.000251  -0.000031  -0.002509  -0.002938  -0.000020
  109  H  4  X   -0.000004   0.000030   0.000001  -0.000001   0.001634
  110  H  4  Y    0.000079   0.000009  -0.001316   0.001865  -0.000010
  111  H  4  Z    0.000179   0.000020  -0.000617   0.001039   0.000004
  112  H  4  X    0.000054  -0.000479   0.000008   0.000007   0.004528
  113  H  4  Y   -0.000317  -0.000039  -0.005751  -0.002263  -0.000015
  114  H  4  Z   -0.001497  -0.000176  -0.003287   0.003069   0.000012
  115  H  4 XX    0.000016   0.000002   0.000959  -0.000076  -0.000001
  116  H  4 YY    0.000050   0.000006  -0.001299  -0.000242  -0.000004
  117  H  4 ZZ   -0.000066  -0.000008   0.000340   0.000318   0.000006
  118  H  4 XY   -0.000000  -0.000005   0.000003   0.000003   0.000898
  119  H  4 XZ    0.000018  -0.000152   0.000002   0.000001   0.000928
  120  H  4 YZ   -0.000161  -0.000019  -0.001396   0.000152   0.000003
  121  H  5  S    0.000037   0.000006   0.000121   0.038893  -0.000391
  122  H  5  S   -0.001425  -0.000173  -0.011025   0.033142  -0.000515
  123  H  5  S   -0.000093  -0.000015  -0.002185   0.002978  -0.000106
  124  H  5  X    0.000018  -0.000151  -0.000003   0.000004   0.001900
  125  H  5  Y   -0.000090  -0.000011   0.000959  -0.001595   0.000032
  126  H  5  Z   -0.000003   0.000001  -0.000871   0.003240  -0.000031
  127  H  5  X    0.000016  -0.000146  -0.000014  -0.000007   0.004755
  128  H  5  Y   -0.000207  -0.000022   0.003994   0.003953   0.000037
  129  H  5  Z   -0.001202  -0.000145  -0.003700   0.003098  -0.000029
  130  H  5 XX   -0.000006  -0.000001   0.000847  -0.000175   0.000011
  131  H  5 YY    0.000260   0.000030  -0.000565  -0.001341  -0.000005
  132  H  5 ZZ   -0.000254  -0.000029  -0.000283   0.001517  -0.000005
  133  H  5 XY   -0.000012   0.000088   0.000005   0.000005  -0.000704
  134  H  5 XZ    0.000011  -0.000103  -0.000005   0.000002   0.001165
  135  H  5 YZ    0.000034   0.000004   0.001555  -0.000219   0.000012
  136  H  6  S    0.000275  -0.000064   0.000181   0.028607  -0.103751
  137  H  6  S   -0.011313   0.011704   0.000237   0.019986  -0.125707
  138  H  6  S   -0.002596   0.002441  -0.000164   0.001442  -0.032367
  139  H  6  X   -0.000536   0.000563   0.000094   0.001762  -0.005669
  140  H  6  Y   -0.000677   0.000658   0.000147   0.000831  -0.006377
  141  H  6  Z    0.000374  -0.000410  -0.000032  -0.001228   0.005082
  142  H  6  X   -0.003896   0.003190  -0.000238   0.001347  -0.005859
  143  H  6  Y   -0.003757   0.003632   0.000239  -0.003160  -0.003788
  144  H  6  Z    0.002609  -0.002443   0.000381  -0.000806   0.006335
  145  H  6 XX   -0.000179  -0.000023  -0.000009   0.000522  -0.000075
  146  H  6 YY   -0.000211   0.000254   0.000111  -0.000511  -0.000103
  147  H  6 ZZ    0.000391  -0.000230  -0.000102  -0.000011   0.000178
  148  H  6 XY   -0.001149   0.000933   0.000054  -0.000182  -0.001561
  149  H  6 XZ    0.000724  -0.000613   0.000145  -0.000629   0.001492
  150  H  6 YZ    0.000805  -0.000669  -0.000034   0.000088   0.001531
  151  H  7  S    0.000253   0.000126   0.000181   0.028651   0.103927
  152  H  7  S   -0.008317  -0.013981   0.000215   0.020002   0.125932
  153  H  7  S   -0.001966  -0.002967  -0.000169   0.001462   0.032406
  154  H  7  X    0.000392   0.000669  -0.000093  -0.001768  -0.005670
  155  H  7  Y   -0.000508  -0.000797   0.000147   0.000832   0.006398
  156  H  7  Z    0.000270   0.000485  -0.000031  -0.001233  -0.005087
  157  H  7  X    0.003053   0.003985   0.000245  -0.001350  -0.005862
  158  H  7  Y   -0.002827  -0.004405   0.000235  -0.003178   0.003802
  159  H  7  Z    0.001975   0.002975   0.000387  -0.000804  -0.006340
  160  H  7 XX   -0.000178  -0.000013  -0.000010   0.000529   0.000073
  161  H  7 YY   -0.000150  -0.000301   0.000112  -0.000520   0.000107
  162  H  7 ZZ    0.000328   0.000314  -0.000102  -0.000009  -0.000179
  163  H  7 XY    0.000905   0.001170  -0.000053   0.000181  -0.001563
  164  H  7 XZ   -0.000563  -0.000760  -0.000146   0.000633   0.001491
  165  H  7 YZ    0.000630   0.000838  -0.000034   0.000089  -0.001535

                      6          7          8          9         10
                   -0.5950    -0.5025    -0.4378    -0.3462    -0.3157
                     A          A          A          A          A   
    1  C  1  S   -0.017467   0.002857   0.001317  -0.000002   0.000837
    2  C  1  S    0.300861  -0.036200  -0.047610   0.000058  -0.057009
    3  C  1  S    0.074886  -0.010394  -0.010019   0.000016  -0.013817
    4  C  1  S    0.183827  -0.040755  -0.031037   0.000162  -0.002900
    5  C  1  X    0.000088  -0.000154  -0.000290   0.217736  -0.000321
    6  C  1  Y   -0.008362   0.164262   0.146930   0.000107  -0.102324
    7  C  1  Z   -0.112426   0.081310  -0.148012  -0.000191  -0.099894
    8  C  1  X    0.000098  -0.000162  -0.000294   0.257976  -0.000374
    9  C  1  Y   -0.002877   0.177813   0.163281   0.000159  -0.115170
   10  C  1  Z   -0.107752   0.087675  -0.158478  -0.000205  -0.108495
   11  C  1  X    0.000035  -0.000077  -0.000086   0.154069  -0.000269
   12  C  1  Y   -0.002486   0.070619   0.067633   0.000100  -0.053803
   13  C  1  Z   -0.031128   0.022620  -0.067840  -0.000085  -0.045434
   14  C  1 XX   -0.004816  -0.000746   0.001151   0.000007  -0.008515
   15  C  1 YY    0.007679  -0.004282   0.004630   0.000023   0.010028
   16  C  1 ZZ   -0.002863   0.005028  -0.005780  -0.000030  -0.001513
   17  C  1 XY   -0.000022   0.000004  -0.000021   0.008156  -0.000019
   18  C  1 XZ    0.000031   0.000005   0.000021   0.013706  -0.000042
   19  C  1 YZ   -0.001486   0.002222  -0.010699   0.000045   0.010451
   20  C  1 XX   -0.007230  -0.002573   0.005915   0.000019  -0.012522
   21  C  1 YY    0.008110  -0.004788   0.007602   0.000018   0.012875
   22  C  1 ZZ   -0.000880   0.007361  -0.013517  -0.000038  -0.000353
   23  C  1 XY   -0.000039   0.000011  -0.000029   0.008937  -0.000023
   24  C  1 XZ    0.000040  -0.000008   0.000017   0.019271  -0.000059
   25  C  1 YZ    0.001050   0.008398  -0.003353   0.000061   0.018158
   26  C  1 XXX   0.000004   0.000004   0.000008  -0.003116   0.000003
   27  C  1 YYY  -0.001602  -0.003618   0.001451  -0.000005  -0.000713
   28  C  1 ZZZ  -0.001069   0.000277  -0.004605  -0.000016   0.000052
   29  C  1 XXY   0.000655  -0.000640  -0.000599   0.000000   0.000158
   30  C  1 XXZ   0.003466  -0.002097   0.001388   0.000004  -0.002972
   31  C  1 YYX  -0.000005  -0.000000  -0.000007  -0.001064   0.000010
   32  C  1 YYZ  -0.002033   0.001726   0.004791   0.000018   0.002901
   33  C  1 ZZX   0.000000  -0.000006  -0.000003   0.005244  -0.000013
   34  C  1 ZZY   0.001494   0.005493  -0.001348   0.000006   0.000799
   35  C  1 XYZ   0.000008  -0.000001  -0.000002   0.005550  -0.000010
   36  C  2  S    0.008982   0.002298  -0.001755   0.000166  -0.000024
   37  C  2  S   -0.183437  -0.002240   0.077558  -0.052214   0.081075
   38  C  2  S   -0.046766  -0.001568   0.022325  -0.012803   0.022113
   39  C  2  S   -0.108099  -0.014077   0.083751  -0.024084   0.091068
   40  C  2  X   -0.003836   0.102675  -0.114478  -0.047260   0.073534
   41  C  2  Y    0.019819   0.089590   0.054829  -0.047323   0.147998
   42  C  2  Z   -0.059902  -0.068933   0.052764   0.168154   0.116581
   43  C  2  X   -0.013287   0.112409  -0.128598  -0.048416   0.094688
   44  C  2  Y    0.020467   0.105508   0.075694  -0.057550   0.184982
   45  C  2  Z   -0.064913  -0.075274   0.053684   0.198500   0.142876
   46  C  2  X   -0.005477   0.031988  -0.052165  -0.015667   0.043011
   47  C  2  Y    0.007207   0.036648   0.032927  -0.040537   0.115360
   48  C  2  Z   -0.015837  -0.022663   0.020787   0.098132   0.094567
   49  C  2 XX   -0.004830   0.004383  -0.003808   0.006721   0.004477
   50  C  2 YY   -0.001237  -0.006017   0.002548   0.003107   0.000946
   51  C  2 ZZ    0.006067   0.001634   0.001260  -0.009828  -0.005423
   52  C  2 XY   -0.000385  -0.000823   0.007253   0.006395   0.001387
   53  C  2 XZ   -0.000675  -0.003457   0.003062  -0.001895   0.009538
   54  C  2 YZ    0.002435   0.000339  -0.007172  -0.006080   0.000847
   55  C  2 XX   -0.009417   0.005825  -0.005655   0.012238   0.008660
   56  C  2 YY    0.000200  -0.008455   0.002838   0.004830   0.001254
   57  C  2 ZZ    0.009217   0.002630   0.002816  -0.017068  -0.009915
   58  C  2 XY    0.002759   0.003157   0.008453   0.008593   0.001906
   59  C  2 XZ   -0.000060  -0.005776   0.006332  -0.005961   0.016043
   60  C  2 YZ    0.003504  -0.002891  -0.011325  -0.006883  -0.000705
   61  C  2 XXX  -0.001795   0.002016  -0.000807   0.002473   0.004306
   62  C  2 YYY  -0.001148  -0.000033  -0.002584  -0.001460  -0.000165
   63  C  2 ZZZ   0.000686   0.001409  -0.002387   0.001176  -0.000617
   64  C  2 XXY   0.001192  -0.000204   0.002925   0.000445   0.002024
   65  C  2 XXZ  -0.000034  -0.003176   0.002636  -0.002246   0.002621
   66  C  2 YYX   0.001590  -0.003547  -0.000233  -0.000127  -0.001533
   67  C  2 YYZ  -0.000885   0.001286   0.000566   0.000668  -0.001794
   68  C  2 ZZX   0.000819   0.000843   0.001316  -0.003190  -0.004245
   69  C  2 ZZY   0.000349   0.000249   0.000542   0.001515  -0.001803
   70  C  2 XYZ  -0.000603  -0.000619  -0.002823  -0.001252  -0.003056
   71  C  3  S    0.008916   0.002290  -0.001775  -0.000174  -0.000014
   72  C  3  S   -0.182150  -0.002009   0.078211   0.052912   0.080754
   73  C  3  S   -0.046429  -0.001508   0.022508   0.013004   0.022030
   74  C  3  S   -0.107427  -0.013787   0.084063   0.024751   0.090827
   75  C  3  X    0.004128  -0.102553   0.114728  -0.046806  -0.073255
   76  C  3  Y    0.019666   0.089602   0.054689   0.048482   0.147916
   77  C  3  Z   -0.059892  -0.068761   0.053083  -0.168259   0.117208
   78  C  3  X    0.013567  -0.112259   0.128857  -0.047867  -0.094359
   79  C  3  Y    0.020335   0.105481   0.075569   0.059037   0.184874
   80  C  3  Z   -0.064942  -0.075052   0.054026  -0.198616   0.143604
   81  C  3  X    0.005559  -0.031957   0.052329  -0.015266  -0.042852
   82  C  3  Y    0.007180   0.036596   0.032894   0.041425   0.115254
   83  C  3  Z   -0.015836  -0.022591   0.020947  -0.098112   0.094924
   84  C  3 XX   -0.004838   0.004407  -0.003811  -0.006721   0.004507
   85  C  3 YY   -0.001229  -0.006027   0.002570  -0.003114   0.000942
   86  C  3 ZZ    0.006066   0.001620   0.001241   0.009835  -0.005448
   87  C  3 XY    0.000375   0.000817  -0.007267   0.006367  -0.001409
   88  C  3 XZ    0.000695   0.003464  -0.003051  -0.001893  -0.009539
   89  C  3 YZ    0.002425   0.000338  -0.007187   0.006083   0.000838
   90  C  3 XX   -0.009422   0.005861  -0.005658  -0.012232   0.008709
   91  C  3 YY    0.000203  -0.008458   0.002869  -0.004840   0.001235
   92  C  3 ZZ    0.009220   0.002597   0.002790   0.017073  -0.009945
   93  C  3 XY   -0.002753  -0.003178  -0.008443   0.008508  -0.001935
   94  C  3 XZ    0.000084   0.005788  -0.006319  -0.005965  -0.016032
   95  C  3 YZ    0.003489  -0.002898  -0.011316   0.006861  -0.000700
   96  C  3 XXX   0.001796  -0.002023   0.000807   0.002475  -0.004315
   97  C  3 YYY  -0.001144  -0.000028  -0.002593   0.001454  -0.000168
   98  C  3 ZZZ   0.000682   0.001408  -0.002389  -0.001167  -0.000625
   99  C  3 XXY   0.001195  -0.000207   0.002935  -0.000414   0.002021
  100  C  3 XXZ  -0.000035  -0.003179   0.002632   0.002241   0.002622
  101  C  3 YYX  -0.001585   0.003552   0.000235  -0.000114   0.001535
  102  C  3 YYZ  -0.000880   0.001290   0.000574  -0.000676  -0.001784
  103  C  3 ZZX  -0.000824  -0.000838  -0.001318  -0.003207   0.004255
  104  C  3 ZZY   0.000341   0.000244   0.000544  -0.001536  -0.001796
  105  C  3 XYZ   0.000596   0.000613   0.002832  -0.001239   0.003060
  106  H  4  S    0.101058  -0.120321  -0.059480   0.000193   0.109885
  107  H  4  S    0.120705  -0.158585  -0.084487   0.000299   0.161221
  108  H  4  S    0.030999  -0.055199  -0.037271   0.000178   0.123889
  109  H  4  X   -0.000008   0.000011   0.000000   0.004346  -0.000020
  110  H  4  Y    0.009440  -0.009074  -0.001844   0.000021   0.007047
  111  H  4  Z    0.002713  -0.005851  -0.005314   0.000003   0.001816
  112  H  4  X   -0.000010   0.000009  -0.000008   0.011763  -0.000038
  113  H  4  Y    0.008732  -0.006146   0.002363   0.000032   0.000871
  114  H  4  Z    0.000323  -0.002872  -0.011100  -0.000007  -0.004905
  115  H  4 XX   -0.000989   0.001362   0.000530  -0.000004  -0.000858
  116  H  4 YY    0.002468  -0.001179   0.001101   0.000009   0.002069
  117  H  4 ZZ   -0.001479  -0.000182  -0.001630  -0.000005  -0.001211
  118  H  4 XY   -0.000003   0.000005  -0.000002   0.001777  -0.000010
  119  H  4 XZ   -0.000001   0.000003   0.000003   0.001342  -0.000006
  120  H  4 YZ    0.001153  -0.002536  -0.002029   0.000004   0.000150
  121  H  5  S    0.109130   0.029193   0.138224  -0.000218  -0.027447
  122  H  5  S    0.133927   0.042978   0.206306  -0.000286  -0.043001
  123  H  5  S    0.031458   0.003933   0.092292  -0.000110  -0.021589
  124  H  5  X    0.000028   0.000006   0.000029   0.006139  -0.000011
  125  H  5  Y   -0.008614   0.000754  -0.008243   0.000022  -0.000383
  126  H  5  Z    0.005878   0.005133   0.007747  -0.000023  -0.003050
  127  H  5  X    0.000040   0.000003   0.000045   0.016533  -0.000023
  128  H  5  Y   -0.008890   0.005055  -0.009377   0.000023  -0.005497
  129  H  5  Z    0.001557   0.008943   0.005106  -0.000004  -0.004174
  130  H  5 XX   -0.001203  -0.000544  -0.001587   0.000016  -0.000330
  131  H  5 YY    0.001612  -0.002288   0.001354  -0.000012   0.001204
  132  H  5 ZZ   -0.000408   0.002832   0.000233  -0.000004  -0.000874
  133  H  5 XY   -0.000011   0.000002  -0.000015  -0.002520   0.000000
  134  H  5 XZ    0.000011   0.000010   0.000011   0.003056  -0.000008
  135  H  5 YZ   -0.002207  -0.000780  -0.002826   0.000010   0.000791
  136  H  6  S   -0.060898  -0.091242   0.061627   0.094003  -0.049515
  137  H  6  S   -0.074403  -0.119495   0.085264   0.128647  -0.067219
  138  H  6  S   -0.019124  -0.043495   0.041528   0.079367  -0.040297
  139  H  6  X   -0.004005  -0.005410   0.001502   0.004455  -0.001908
  140  H  6  Y   -0.003753  -0.005148   0.005657   0.005317   0.000059
  141  H  6  Z    0.001805   0.004017  -0.001499  -0.000417   0.004633
  142  H  6  X   -0.005525  -0.003456  -0.000924   0.001644   0.004859
  143  H  6  Y   -0.002720  -0.000509   0.008088   0.000519   0.009215
  144  H  6  Z    0.000839   0.002687  -0.000337   0.007994   0.007469
  145  H  6 XX   -0.000675  -0.000469  -0.001168   0.000593  -0.000038
  146  H  6 YY   -0.000098   0.000320   0.001813   0.001126   0.001182
  147  H  6 ZZ    0.000773   0.000149  -0.000645  -0.001719  -0.001144
  148  H  6 XY   -0.001172  -0.001304   0.001345   0.001293   0.000571
  149  H  6 XZ    0.000559   0.001246   0.000503   0.000382   0.001333
  150  H  6 YZ    0.000656   0.000942  -0.001066  -0.000289   0.000483
  151  H  7  S   -0.060464  -0.091107   0.061935  -0.094166  -0.049264
  152  H  7  S   -0.073840  -0.119405   0.085771  -0.128867  -0.066859
  153  H  7  S   -0.018971  -0.043473   0.041769  -0.079470  -0.040041
  154  H  7  X    0.003975   0.005390  -0.001499   0.004467   0.001894
  155  H  7  Y   -0.003732  -0.005155   0.005684  -0.005312   0.000065
  156  H  7  Z    0.001783   0.004015  -0.001502   0.000423   0.004638
  157  H  7  X    0.005483   0.003456   0.000912   0.001667  -0.004862
  158  H  7  Y   -0.002708  -0.000534   0.008137  -0.000460   0.009211
  159  H  7  Z    0.000801   0.002716  -0.000350  -0.007998   0.007509
  160  H  7 XX   -0.000674  -0.000458  -0.001178  -0.000602  -0.000034
  161  H  7 YY   -0.000100   0.000311   0.001829  -0.001119   0.001186
  162  H  7 ZZ    0.000774   0.000147  -0.000651   0.001720  -0.001152
  163  H  7 XY    0.001166   0.001305  -0.001346   0.001290  -0.000572
  164  H  7 XZ   -0.000550  -0.001244  -0.000506   0.000376  -0.001335
  165  H  7 YZ    0.000650   0.000945  -0.001072   0.000283   0.000491

                     11         12         13         14         15
                   -0.2674    -0.2202     0.0482     0.0684     0.0706
                     A          A          A          A          A   
    1  C  1  S    0.000129  -0.000002   0.006625  -0.000001   0.002166
    2  C  1  S   -0.003081  -0.000063   0.172390  -0.000673   0.196996
    3  C  1  S   -0.002015  -0.000009   0.043786  -0.000097   0.032788
    4  C  1  S    0.039324  -0.000387   1.761535  -0.010859   3.002965
    5  C  1  X   -0.000309   0.101489  -0.000045   0.050676   0.000173
    6  C  1  Y   -0.066813   0.000131  -0.058857  -0.000541   0.078988
    7  C  1  Z    0.066748  -0.000064  -0.067216   0.000376  -0.066760
    8  C  1  X   -0.000369   0.114405  -0.000111   0.044693   0.000011
    9  C  1  Y   -0.077578   0.000166  -0.114385  -0.001238   0.143999
   10  C  1  Z    0.084096  -0.000058  -0.138147   0.000856  -0.169419
   11  C  1  X   -0.000240   0.073735  -0.000338  -0.368288  -0.002878
   12  C  1  Y   -0.066888   0.000084  -0.283350  -0.006049   0.835719
   13  C  1  Z    0.082191   0.000029  -0.463054   0.001048  -0.077732
   14  C  1 XX    0.010853  -0.000007   0.003709  -0.000012  -0.003003
   15  C  1 YY    0.001257   0.000004  -0.005512  -0.000005   0.005387
   16  C  1 ZZ   -0.012110   0.000004   0.001803   0.000016  -0.002384
   17  C  1 XY   -0.000006  -0.007016  -0.000003  -0.002888  -0.000013
   18  C  1 XZ   -0.000056   0.006501   0.000007   0.015120   0.000059
   19  C  1 YZ    0.013898  -0.000003  -0.004406   0.000005   0.002511
   20  C  1 XX    0.017861  -0.000009  -0.051138   0.000327  -0.101641
   21  C  1 YY   -0.003236  -0.000025   0.034445  -0.000296   0.097726
   22  C  1 ZZ   -0.014625   0.000034   0.016693  -0.000031   0.003915
   23  C  1 XY    0.000012  -0.014780  -0.000186   0.006451  -0.000473
   24  C  1 XZ   -0.000061   0.001700   0.000105  -0.050303  -0.000101
   25  C  1 YZ    0.018886   0.000006   0.004657   0.000197   0.035667
   26  C  1 XXX   0.000000  -0.000381   0.000017   0.002239   0.000033
   27  C  1 YYY  -0.002178   0.000001  -0.004409   0.000005  -0.007139
   28  C  1 ZZZ  -0.004242  -0.000002   0.004065   0.000001   0.002698
   29  C  1 XXY   0.002674  -0.000005   0.002998   0.000018  -0.001095
   30  C  1 XXZ   0.003019   0.000001   0.006871  -0.000036   0.009448
   31  C  1 YYX   0.000009  -0.002991  -0.000007  -0.000371  -0.000024
   32  C  1 YYZ   0.002672   0.000002  -0.012325   0.000035  -0.013068
   33  C  1 ZZX  -0.000009   0.003503  -0.000015  -0.002633  -0.000021
   34  C  1 ZZY   0.000247   0.000003   0.002918  -0.000026   0.010672
   35  C  1 XYZ  -0.000021  -0.003840   0.000026  -0.003041   0.000036
   36  C  2  S    0.000086   0.000894   0.003047   0.000254  -0.004561
   37  C  2  S    0.077873   0.147160   0.092405  -0.210160  -0.085302
   38  C  2  S    0.023289   0.044065   0.028480  -0.045339  -0.014260
   39  C  2  S    0.104941   0.125383   0.774572  -2.429327  -1.395585
   40  C  2  X   -0.141384  -0.053229  -0.053241  -0.076782   0.026555
   41  C  2  Y    0.118801   0.220874  -0.036017   0.043664   0.044899
   42  C  2  Z   -0.123546   0.036536   0.042268  -0.085326  -0.014070
   43  C  2  X   -0.177522  -0.071144  -0.101253  -0.085707   0.031579
   44  C  2  Y    0.155902   0.284877  -0.086892   0.162231   0.119739
   45  C  2  Z   -0.154575   0.041135   0.079605  -0.115071  -0.007918
   46  C  2  X   -0.141668  -0.123761  -0.283916  -0.556746   0.124576
   47  C  2  Y    0.129769   0.263008  -0.205267   0.596738   0.242654
   48  C  2  Z   -0.102252   0.043080   0.260102  -0.337322   0.213826
   49  C  2 XX   -0.004843   0.001372  -0.000342   0.014923  -0.004205
   50  C  2 YY    0.002848   0.001838  -0.002203  -0.006918  -0.004023
   51  C  2 ZZ    0.001994  -0.003210   0.002546  -0.008005   0.008228
   52  C  2 XY    0.000171  -0.009084  -0.005658  -0.001716   0.007838
   53  C  2 XZ   -0.003166   0.002479   0.002793   0.008298  -0.007218
   54  C  2 YZ    0.002626  -0.001450   0.004930  -0.001407  -0.002622
   55  C  2 XX   -0.009972  -0.002740  -0.003593  -0.029761   0.010532
   56  C  2 YY    0.003470   0.003267   0.009899  -0.009208  -0.009204
   57  C  2 ZZ    0.006502  -0.000527  -0.006306   0.038969  -0.001327
   58  C  2 XY    0.006819  -0.017673   0.022549  -0.052552  -0.032887
   59  C  2 XZ   -0.004279   0.008016  -0.004672   0.063922   0.043620
   60  C  2 YZ    0.004407  -0.007669  -0.013588   0.040971   0.042381
   61  C  2 XXX  -0.002633   0.000993   0.002173  -0.006816  -0.000363
   62  C  2 YYY  -0.001509   0.000801   0.001889  -0.002414   0.000398
   63  C  2 ZZZ   0.002263   0.001361  -0.004496   0.004631   0.002540
   64  C  2 XXY   0.004389  -0.001569  -0.001577   0.002013   0.003925
   65  C  2 XXZ  -0.001516  -0.000653   0.003310   0.000224  -0.002004
   66  C  2 YYX  -0.000029  -0.001635  -0.002980   0.008585   0.002096
   67  C  2 YYZ  -0.001520  -0.001173   0.002722  -0.006437  -0.001403
   68  C  2 ZZX   0.003562   0.000303   0.000065   0.000559  -0.001608
   69  C  2 ZZY  -0.002364   0.000494  -0.000957   0.001225  -0.004459
   70  C  2 XYZ   0.001351  -0.003028   0.003347  -0.006928  -0.003655
   71  C  3  S    0.000079  -0.000893   0.003038  -0.000226  -0.004503
   72  C  3  S    0.077556  -0.147344   0.092320   0.210505  -0.083579
   73  C  3  S    0.023209  -0.044115   0.028403   0.045388  -0.013874
   74  C  3  S    0.104399  -0.125627   0.778204   2.437566  -1.377487
   75  C  3  X    0.141491  -0.053433   0.053381  -0.076801  -0.027370
   76  C  3  Y    0.118379  -0.220818  -0.036250  -0.043905   0.044494
   77  C  3  Z   -0.122637  -0.036502   0.042132   0.085484  -0.012992
   78  C  3  X    0.177631  -0.071408   0.101546  -0.085958  -0.032349
   79  C  3  Y    0.155376  -0.284795  -0.087516  -0.163103   0.118704
   80  C  3  Z   -0.153429  -0.041103   0.079667   0.115251  -0.006670
   81  C  3  X    0.141709  -0.123943   0.282968  -0.556944  -0.127378
   82  C  3  Y    0.129338  -0.262951  -0.207360  -0.597727   0.237297
   83  C  3  Z   -0.101419  -0.043041   0.260037   0.335857   0.218010
   84  C  3 XX   -0.004806  -0.001380  -0.000343  -0.014872  -0.004334
   85  C  3 YY    0.002855  -0.001828  -0.002207   0.006961  -0.003978
   86  C  3 ZZ    0.001951   0.003208   0.002550   0.007911   0.008312
   87  C  3 XY   -0.000203  -0.009097   0.005634  -0.001663  -0.007849
   88  C  3 XZ    0.003194   0.002471  -0.002794   0.008273   0.007302
   89  C  3 YZ    0.002615   0.001425   0.004912   0.001469  -0.002637
   90  C  3 XX   -0.009909   0.002692  -0.003512   0.029437   0.010807
   91  C  3 YY    0.003500  -0.003227   0.010009   0.009531  -0.009227
   92  C  3 ZZ    0.006409   0.000536  -0.006497  -0.038969  -0.001580
   93  C  3 XY   -0.006860  -0.017700  -0.022754  -0.052675   0.032349
   94  C  3 XZ    0.004316   0.007983   0.004835   0.064026  -0.043176
   95  C  3 YZ    0.004401   0.007587  -0.013828  -0.041423   0.042090
   96  C  3 XXX   0.002625   0.000988  -0.002199  -0.006843   0.000303
   97  C  3 YYY  -0.001513  -0.000809   0.001883   0.002370   0.000424
   98  C  3 ZZZ   0.002267  -0.001357  -0.004519  -0.004646   0.002486
   99  C  3 XXY   0.004399   0.001570  -0.001584  -0.001996   0.003887
  100  C  3 XXZ  -0.001531   0.000652   0.003308  -0.000231  -0.001982
  101  C  3 YYX   0.000028  -0.001630   0.003012   0.008603  -0.002039
  102  C  3 YYZ  -0.001511   0.001169   0.002754   0.006464  -0.001353
  103  C  3 ZZX  -0.003549   0.000306  -0.000062   0.000577   0.001633
  104  C  3 ZZY  -0.002369  -0.000484  -0.000943  -0.001184  -0.004456
  105  C  3 XYZ  -0.001343  -0.003029  -0.003375  -0.006962   0.003601
  106  H  4  S    0.038884   0.000014  -0.018093   0.000023   0.007922
  107  H  4  S    0.058598   0.000079  -0.189283   0.000043  -0.187358
  108  H  4  S    0.057179   0.000017  -1.446613  -0.002217  -0.176941
  109  H  4  X   -0.000008   0.003479  -0.000020  -0.000598  -0.000013
  110  H  4  Y    0.000751   0.000007   0.015159  -0.000005   0.005627
  111  H  4  Z    0.002650   0.000004   0.004892   0.000044  -0.002756
  112  H  4  X   -0.000007   0.012383   0.000120  -0.000843   0.000156
  113  H  4  Y   -0.002187   0.000026  -0.091014   0.000054  -0.094173
  114  H  4  Z    0.005432   0.000008  -0.048764  -0.000133  -0.029367
  115  H  4 XX    0.000520  -0.000006   0.004253  -0.000007   0.003570
  116  H  4 YY   -0.000356   0.000005  -0.004604  -0.000002  -0.002959
  117  H  4 ZZ   -0.000164   0.000002   0.000350   0.000009  -0.000611
  118  H  4 XY    0.000001   0.002241   0.000019   0.000386   0.000013
  119  H  4 XZ   -0.000003   0.001960   0.000002   0.000949   0.000005
  120  H  4 YZ    0.001052   0.000003  -0.003810  -0.000006  -0.003184
  121  H  5  S   -0.108519   0.000053  -0.000577   0.000115  -0.015188
  122  H  5  S   -0.166258   0.000177  -0.120615   0.001900  -0.352390
  123  H  5  S   -0.124227   0.000272  -0.562840   0.010552  -2.011374
  124  H  5  X   -0.000038   0.001457   0.000014  -0.003594   0.000043
  125  H  5  Y    0.005192   0.000007  -0.009580   0.000060  -0.012193
  126  H  5  Z   -0.002184   0.000000  -0.000877  -0.000085   0.016691
  127  H  5  X   -0.000064  -0.000972  -0.000163  -0.005507  -0.000333
  128  H  5  Y    0.005249   0.000011   0.048788  -0.000540   0.095276
  129  H  5  Z    0.008423   0.000033  -0.026646   0.000696  -0.128686
  130  H  5 XX    0.001125   0.000001   0.002952  -0.000042   0.007373
  131  H  5 YY   -0.001942  -0.000003  -0.001194   0.000016  -0.002606
  132  H  5 ZZ    0.000817   0.000002  -0.001758   0.000026  -0.004767
  133  H  5 XY    0.000015  -0.000825   0.000012   0.001976   0.000036
  134  H  5 XZ   -0.000012  -0.000350  -0.000015  -0.001456  -0.000037
  135  H  5 YZ    0.001244   0.000004   0.002398  -0.000041   0.008204
  136  H  6  S   -0.015583  -0.052959  -0.018660   0.011348   0.025051
  137  H  6  S   -0.022215  -0.063295  -0.108858   0.327244   0.209774
  138  H  6  S   -0.015110  -0.072481  -1.036285   1.284829   0.926138
  139  H  6  X   -0.004805  -0.004437   0.006759  -0.013845  -0.005596
  140  H  6  Y    0.002235   0.003226   0.007534  -0.004331  -0.004852
  141  H  6  Z   -0.002500   0.003275  -0.004318   0.002298   0.006026
  142  H  6  X   -0.010476   0.000307  -0.048455   0.084307   0.051031
  143  H  6  Y    0.006912   0.019278  -0.027730   0.085408   0.056710
  144  H  6  Z   -0.010558   0.002543   0.034211  -0.083472  -0.027859
  145  H  6 XX   -0.003013  -0.001315  -0.000715   0.000000   0.000396
  146  H  6 YY    0.001514   0.002662   0.000049   0.000783   0.000875
  147  H  6 ZZ    0.001500  -0.001347   0.000666  -0.000783  -0.001271
  148  H  6 XY   -0.000690   0.000734  -0.002427   0.005202   0.003190
  149  H  6 XZ   -0.000248   0.001352   0.002413  -0.004984  -0.001525
  150  H  6 YZ   -0.001429  -0.000324   0.001883  -0.006520  -0.001896
  151  H  7  S   -0.015253   0.053087  -0.018615  -0.011385   0.025012
  152  H  7  S   -0.021694   0.063451  -0.110067  -0.328465   0.207064
  153  H  7  S   -0.014673   0.072564  -1.037477  -1.289882   0.915213
  154  H  7  X    0.004794  -0.004441  -0.006749  -0.013859   0.005469
  155  H  7  Y    0.002241  -0.003208   0.007535   0.004377  -0.004822
  156  H  7  Z   -0.002491  -0.003280  -0.004321  -0.002342   0.006019
  157  H  7  X    0.010477   0.000301   0.048703   0.084532  -0.050320
  158  H  7  Y    0.006901  -0.019269  -0.028104  -0.085913   0.056174
  159  H  7  Z   -0.010514  -0.002539   0.034421   0.083618  -0.027140
  160  H  7 XX   -0.003011   0.001312  -0.000706   0.000004   0.000393
  161  H  7 YY    0.001518  -0.002659   0.000029  -0.000807   0.000883
  162  H  7 ZZ    0.001493   0.001348   0.000677   0.000802  -0.001277
  163  H  7 XY    0.000696   0.000724   0.002454   0.005227  -0.003157
  164  H  7 XZ    0.000242   0.001350  -0.002426  -0.004980   0.001482
  165  H  7 YZ   -0.001430   0.000319   0.001905   0.006539  -0.001842

                     16         17         18         19         20
                    0.1054     0.1131     0.1782     0.1934     0.2260
                     A          A          A          A          A   
    1  C  1  S   -0.000504  -0.000028   0.000117  -0.020956   0.053414
    2  C  1  S   -0.086463  -0.000598  -0.000058   0.031827   0.163629
    3  C  1  S   -0.010977  -0.000090   0.000140  -0.039362   0.040671
    4  C  1  S   -1.791699  -0.011343  -0.014168   4.885051   1.755421
    5  C  1  X    0.001162  -0.158620   0.031268   0.000079   0.000112
    6  C  1  Y    0.148233   0.000963  -0.000234   0.055239   0.013454
    7  C  1  Z   -0.042565  -0.000111  -0.000265   0.085922   0.080050
    8  C  1  X    0.001483  -0.259606   0.079773   0.000158  -0.000057
    9  C  1  Y    0.305481   0.002017  -0.000438   0.141283   0.213608
   10  C  1  Z   -0.122656  -0.000772  -0.000471   0.222781   0.335889
   11  C  1  X    0.004614  -1.175064   1.664440   0.006510  -0.003669
   12  C  1  Y    1.552302   0.012182  -0.006114   1.692407   0.816167
   13  C  1  Z   -0.873603  -0.005407  -0.011614   3.562215  -0.694988
   14  C  1 XX    0.003968   0.000033   0.000039  -0.010934   0.010721
   15  C  1 YY   -0.009223  -0.000060  -0.000113   0.024028  -0.040493
   16  C  1 ZZ    0.005255   0.000028   0.000074  -0.013095   0.029772
   17  C  1 XY   -0.000020   0.001937  -0.013476  -0.000087   0.000108
   18  C  1 XZ   -0.000109   0.016847  -0.030492  -0.000073   0.000053
   19  C  1 YZ    0.001405  -0.000011   0.000074  -0.018629   0.012262
   20  C  1 XX    0.014700   0.000041   0.000178  -0.044357   0.015095
   21  C  1 YY    0.015692   0.000248   0.000213  -0.064359   0.062719
   22  C  1 ZZ   -0.030392  -0.000290  -0.000391   0.108716  -0.077814
   23  C  1 XY    0.000026  -0.006725   0.023480  -0.000324  -0.000572
   24  C  1 XZ    0.000316  -0.076519   0.119160   0.000595   0.000092
   25  C  1 YZ   -0.060004  -0.000299  -0.000492   0.059194  -0.230612
   26  C  1 XXX  -0.000017   0.008954  -0.003223  -0.000006   0.000050
   27  C  1 YYY   0.005188   0.000023   0.000032  -0.011575   0.009845
   28  C  1 ZZZ  -0.001938   0.000000  -0.000029   0.006609   0.001342
   29  C  1 XXY  -0.005022  -0.000022  -0.000015   0.001997  -0.012366
   30  C  1 XXZ  -0.003649  -0.000022  -0.000041   0.015589   0.001792
   31  C  1 YYX  -0.000040   0.000009  -0.010758  -0.000050  -0.000055
   32  C  1 YYZ   0.006249   0.000022   0.000080  -0.024456  -0.003593
   33  C  1 ZZX   0.000063  -0.012022   0.015082   0.000058  -0.000012
   34  C  1 ZZY  -0.001938  -0.000009  -0.000029   0.013533  -0.000842
   35  C  1 XYZ   0.000022  -0.004211   0.003522   0.000066   0.000011
   36  C  2  S    0.002955  -0.003367  -0.003492  -0.018075   0.054577
   37  C  2  S    0.106245  -0.028102   0.106999  -0.089479   0.076098
   38  C  2  S    0.026107  -0.000142   0.009572  -0.001539   0.029263
   39  C  2  S    1.285102  -1.266970   2.240630  -2.677102  -0.147551
   40  C  2  X   -0.013465   0.140822   0.097367  -0.065938   0.016038
   41  C  2  Y   -0.022303   0.059877   0.056142  -0.043394  -0.046622
   42  C  2  Z    0.003066   0.135844  -0.108576   0.017928  -0.028587
   43  C  2  X   -0.006458   0.210031   0.218337  -0.238374   0.211825
   44  C  2  Y   -0.060956   0.150455   0.044182  -0.035015  -0.100005
   45  C  2  Z   -0.013856   0.188478  -0.263850   0.151577  -0.160740
   46  C  2  X   -0.018375   0.512961   1.918284  -0.933964  -0.828170
   47  C  2  Y   -0.679225   0.645576   0.187170   0.334278  -0.013521
   48  C  2  Z   -0.173579   0.605625  -0.995678   1.658267   0.965305
   49  C  2 XX    0.006683  -0.013545  -0.014425  -0.012925   0.007799
   50  C  2 YY   -0.008063   0.002180   0.010893   0.001244  -0.024267
   51  C  2 ZZ    0.001380   0.011366   0.003533   0.011681   0.016468
   52  C  2 XY    0.005000  -0.004944   0.000521  -0.004002  -0.021594
   53  C  2 XZ    0.002263  -0.005661  -0.004284  -0.011808  -0.013250
   54  C  2 YZ   -0.013295   0.004760  -0.006166   0.004421   0.017174
   55  C  2 XX   -0.002486   0.007680   0.046969   0.007570   0.012059
   56  C  2 YY    0.012580  -0.011254  -0.063570   0.048667   0.033363
   57  C  2 ZZ   -0.010094   0.003573   0.016601  -0.056237  -0.045422
   58  C  2 XY    0.020084  -0.043322  -0.038698   0.002939   0.008232
   59  C  2 XZ   -0.042436   0.047076  -0.039280   0.093685   0.065183
   60  C  2 YZ    0.034543   0.022038   0.044403  -0.029153  -0.009892
   61  C  2 XXX   0.001335   0.001130   0.001394   0.002669   0.001770
   62  C  2 YYY   0.000869   0.000459   0.004061  -0.002188  -0.003858
   63  C  2 ZZZ  -0.001144   0.002586  -0.001215   0.001306   0.004576
   64  C  2 XXY   0.000109  -0.001660  -0.004276  -0.000551  -0.001389
   65  C  2 XXZ  -0.000771   0.000628   0.000792   0.002302  -0.006797
   66  C  2 YYX  -0.006229   0.004403  -0.006593   0.003337   0.004194
   67  C  2 YYZ   0.002306  -0.004098   0.000838  -0.004055   0.000657
   68  C  2 ZZX   0.004438  -0.005919   0.004724  -0.006918  -0.006568
   69  C  2 ZZY  -0.001274   0.001044  -0.001173   0.003487   0.006566
   70  C  2 XYZ   0.003308  -0.008164   0.004142  -0.004246  -0.008451
   71  C  3  S    0.002918   0.003389   0.003676  -0.018060   0.054577
   72  C  3  S    0.106193   0.029492  -0.106518  -0.089883   0.076276
   73  C  3  S    0.026133   0.000495  -0.009599  -0.001513   0.029392
   74  C  3  S    1.278459   1.282615  -2.226803  -2.694405  -0.146416
   75  C  3  X    0.011397   0.141056   0.096746   0.066386  -0.016520
   76  C  3  Y   -0.021652  -0.059971  -0.056285  -0.043804  -0.046755
   77  C  3  Z    0.005568  -0.135820   0.108379   0.018824  -0.028759
   78  C  3  X    0.003525   0.210083   0.216254   0.239216  -0.212446
   79  C  3  Y   -0.059735  -0.151112  -0.044673  -0.034898  -0.099641
   80  C  3  Z   -0.010626  -0.188678   0.262519   0.153565  -0.161595
   81  C  3  X    0.010688   0.512671   1.912068   0.945723   0.826266
   82  C  3  Y   -0.674748  -0.655198  -0.188276   0.333824  -0.013050
   83  C  3  Z   -0.163832  -0.607751   0.985180   1.666048   0.964298
   84  C  3 XX    0.006466   0.013627   0.014522  -0.012865   0.007811
   85  C  3 YY   -0.008032  -0.002292  -0.010932   0.001201  -0.024290
   86  C  3 ZZ    0.001566  -0.011335  -0.003590   0.011664   0.016479
   87  C  3 XY   -0.004953  -0.005008   0.000528   0.004023   0.021604
   88  C  3 XZ   -0.002137  -0.005678  -0.004361   0.011782   0.013333
   89  C  3 YZ   -0.013238  -0.004930   0.006163   0.004466   0.017190
   90  C  3 XX   -0.002572  -0.007881  -0.046950   0.007569   0.011687
   91  C  3 YY    0.012678   0.011690   0.063180   0.048821   0.033173
   92  C  3 ZZ   -0.010106  -0.003809  -0.016231  -0.056390  -0.044860
   93  C  3 XY   -0.019655  -0.043410  -0.038594  -0.003035  -0.008106
   94  C  3 XZ    0.041947   0.047543  -0.038771  -0.094153  -0.065549
   95  C  3 YZ    0.034736  -0.021339  -0.044353  -0.029196  -0.010026
   96  C  3 XXX  -0.001364   0.001111   0.001412  -0.002691  -0.001719
   97  C  3 YYY   0.000883  -0.000463  -0.004051  -0.002206  -0.003877
   98  C  3 ZZZ  -0.001144  -0.002586   0.001212   0.001327   0.004516
   99  C  3 XXY   0.000088   0.001701   0.004259  -0.000534  -0.001406
  100  C  3 XXZ  -0.000744  -0.000662  -0.000817   0.002302  -0.006721
  101  C  3 YYX   0.006190   0.004496  -0.006580  -0.003379  -0.004256
  102  C  3 YYZ   0.002279   0.004131  -0.000809  -0.004083   0.000663
  103  C  3 ZZX  -0.004361  -0.005987   0.004686   0.006989   0.006562
  104  C  3 ZZY  -0.001273  -0.001081   0.001176   0.003494   0.006607
  105  C  3 XYZ  -0.003227  -0.008227   0.004144   0.004302   0.008502
  106  H  4  S    0.002617  -0.000105   0.000057   0.012580  -0.034925
  107  H  4  S    0.257154   0.001072   0.000392  -0.041235  -0.049999
  108  H  4  S    2.129281   0.017631  -0.008494   2.005088   0.544495
  109  H  4  X    0.000082  -0.009262   0.012603   0.000074  -0.000025
  110  H  4  Y   -0.012936  -0.000132   0.000090  -0.017659  -0.000509
  111  H  4  Z   -0.019065  -0.000144  -0.000028   0.009948  -0.008973
  112  H  4  X    0.000115  -0.023377   0.018142  -0.000017  -0.000250
  113  H  4  Y    0.115364   0.000688   0.000294  -0.038933   0.166066
  114  H  4  Z    0.075084   0.000575  -0.000070  -0.020035  -0.005747
  115  H  4 XX   -0.004380  -0.000021  -0.000016   0.000636  -0.005801
  116  H  4 YY    0.006852   0.000032   0.000039  -0.003907   0.016580
  117  H  4 ZZ   -0.002472  -0.000012  -0.000024   0.003271  -0.010779
  118  H  4 XY    0.000014  -0.003007   0.006531   0.000022  -0.000050
  119  H  4 XZ   -0.000004   0.000795  -0.001116  -0.000012  -0.000008
  120  H  4 YZ    0.006146   0.000042  -0.000004  -0.000296   0.003992
  121  H  5  S   -0.010534   0.000115  -0.000370   0.068971  -0.020690
  122  H  5  S   -0.164108  -0.001050  -0.000754   0.007752  -0.686640
  123  H  5  S   -1.621177  -0.013965   0.002730   0.069441  -0.342064
  124  H  5  X    0.000103  -0.009918   0.007959   0.000049  -0.000004
  125  H  5  Y   -0.007142  -0.000081   0.000008   0.012298   0.002701
[...]
    1 CARBON           0.000230922       0.000044211       0.000031846
    2 CARBON          -0.000436742      -0.000237069       0.000219606
    3 CARBON           0.000246909      -0.000016169      -0.000071720
    4 HYDROGEN         0.000213263       0.000023810       0.000034387
    5 HYDROGEN        -0.000236028      -0.000040532       0.000033150
    6 HYDROGEN         0.000183584       0.000326546      -0.000139838
    7 HYDROGEN        -0.000201908      -0.000100798      -0.000107430

 ANGLE TO PREVIOUS OPTIMIZATION POINT IS  30.107
 LINEAR INTERPOLATION GIVES ANGLE         28.453

 CURRENT OPTIMIZATION POINT :
 ENERGY                                 =  -116.4842701 HARTREE
 MASS WEIGHTED TANGENT GRADIENT NORM    =     0.0004110 HARTREE/BOHR-SQRT(AMU)
 NEXT GEOMETRY STEP HAS PREDICTED ANGLE =         3.954 DEGREES
 AND CARTESIAN RMS DISPLACEMENT         =     0.0026325 BOHR

 CONSTRAINED OPTIMIZATION POINT   3 FOR PATH POINT  10
 COORDINATES OF SYMMETRY UNIQUE ATOMS (ANGS)
   ATOM   CHARGE       X              Y              Z
 ------------------------------------------------------------
 CARBON      6.0   0.0013573813   0.0375087126  -0.7751669946
 CARBON      6.0  -0.7464551525   0.3781039849   0.4561457403
 CARBON      6.0   0.7474256267   0.3795635467   0.4550608564
 HYDROGEN    1.0   0.0118688724  -0.9696446267  -1.1880029285
 HYDROGEN    1.0  -0.0134169215   0.8056798874  -1.5546680702
 HYDROGEN    1.0  -1.4478959285  -0.2399298734   1.0027977799
 HYDROGEN    1.0   1.4345479687  -0.2599390432   0.9962708555
 ...... END OF ONE-ELECTRON INTEGRALS ......
 CPU     0: STEP CPU TIME=     0.00 TOTAL CPU TIME=        252.8 (      4.2 MIN)
 TOTAL WALL CLOCK TIME=        286.2 SECONDS, CPU UTILIZATION IS    88.32%
  ...... END OF TWO-ELECTRON INTEGRALS .....
 CPU     0: STEP CPU TIME=     0.03 TOTAL CPU TIME=        252.8 (      4.2 MIN)
 TOTAL WALL CLOCK TIME=        286.2 SECONDS, CPU UTILIZATION IS    88.32%

          ---------------------------
              U-B3LYP SCF CALCULATION
          ---------------------------
         DENSITY MATRIX CONVERGENCE THRESHOLD=  2.00E-05
     COARSE -> FINE DFT GRID SWITCH THRESHOLD=  3.00E-04 (SWITCH IN $DFT)
                   HF -> DFT SWITCH THRESHOLD=  5.00E-03 (SWOFF IN $DFT)

 DIRECT SCF CALCULATION, SCHWRZ=T   FDIFF=T

                                                                                                                NONZERO     BLOCKS
 ITER EX      TOTAL ENERGY        E CHANGE  DENSITY CHANGE    DIIS ERROR      VIR. SHIFT       DAMPING        INTEGRALS    SKIPPED
          * * *   INITIATING DIIS PROCEDURE   * * *
   1  0     -116.4827795441  -116.4827795441   0.000116162   0.000105009     0.000000000     1.000000000       90677889      26351
   2  1     -116.4827797518    -0.0000002077   0.000042141   0.000030025     0.000000000     1.000000000       84244810     107838
   3  2     -116.4827797565    -0.0000000047   0.000026987   0.000026944     0.000000000     1.000000000       80010480     163290
   4  3     -116.4827797628    -0.0000000063   0.000005199   0.000007861     0.000000000     1.000000000       77159378     193486
   5  4     -116.4827797634    -0.0000000005   0.000002803   0.000002488     0.000000000     1.000000000       72453452     246465

          -----------------
          DENSITY CONVERGED
          -----------------
     TIME TO FORM FOCK OPERATORS=       5.6 SECONDS (       1.1 SEC/ITER)
     FOCK TIME ON FIRST ITERATION=       1.2, LAST ITERATION=       1.1
     TIME TO SOLVE SCF EQUATIONS=       0.2 SECONDS (       0.0 SEC/ITER)

          ----------------------------
          DFT-D PARAMETERS AND RESULTS
          ----------------------------
 C6 COEFFICIENTS USED:
       2 C6 FOR ELEMENT   1
  Z=  1 CN= 0.912     C6(AA)=    3.03
  Z=  1 CN= 0.000     C6(AA)=    7.59
       5 C6 FOR ELEMENT   6
  Z=  6 CN= 0.000     C6(AA)=   49.11
  Z=  6 CN= 0.987     C6(AA)=   43.25
  Z=  6 CN= 1.998     C6(AA)=   29.36
  Z=  6 CN= 2.999     C6(AA)=   25.78
  Z=  6 CN= 3.984     C6(AA)=   18.21

 #          XYZ [AU]             R0(AA) [ANG.]  CN         C6(AA)     C8(AA)   C10(AA) [AU]
  1   0.00257   0.07088  -1.46485    6  1.455  3.983        18.3       530.5     18795.3
  2  -1.41060   0.71451   0.86199    6  1.455  2.994        25.7       742.8     26315.5
  3   1.41243   0.71727   0.85994    6  1.455  2.994        25.7       742.8     26315.7
  4   0.02243  -1.83236  -2.24500    1  1.091  0.999         3.1        37.4       553.3
  5  -0.02535   1.52251  -2.93790    1  1.091  1.000         3.1        37.4       553.2
  6  -2.73613  -0.45340   1.89501    1  1.091  0.998         3.1        37.4       553.4
  7   2.71090  -0.49121   1.88268    1  1.091  0.998         3.1        37.4       553.4

     MOLECULAR C6(AA) [AU] =       458.99

           DFT-D V3(BJ)
 
 FUNCTIONAL: B3LYP   
 
 PARAMETERS
 S6       :    1.0000
 RS6      :    1.2610
 S18      :    1.7030
 RS18     :    1.0000
 ALPHA6   :   14.0000
 ALPHA8   :   16.0000
 K1-K3    :   16.0000    1.3333    4.0000
 
 EDISP /KCAL,AU:    -0.9354 -0.00149059

 E6    /KCAL :    -0.1055
 E8    /KCAL :    -0.8299
 % E8        : 88.72

 FINAL U-B3LYP ENERGY IS     -116.4842703520 AFTER   5 ITERATIONS
 DFT EXCHANGE + CORRELATION ENERGY =       -14.2377731519
 TOTAL ELECTRON NUMBER             =        21.9999179455
 GRIMME'S DISPERSION ENERGY                     =       -0.0014905886
 ENERGY WITHOUT GRIMME'S DISPERSION CORRECTION IS     -116.4827797634

          --------------------
          SPIN SZ   =    1.000
          S-SQUARED =    2.006
          --------------------
 ...... END OF UHF CALCULATION ......
 CPU     0: STEP CPU TIME=     5.77 TOTAL CPU TIME=        258.6 (      4.3 MIN)
 TOTAL WALL CLOCK TIME=        292.7 SECONDS, CPU UTILIZATION IS    88.34%

          ----------------------------
          DFT-D PARAMETERS AND RESULTS
          ----------------------------
 C6 COEFFICIENTS USED:
       2 C6 FOR ELEMENT   1
  Z=  1 CN= 0.912     C6(AA)=    3.03
  Z=  1 CN= 0.000     C6(AA)=    7.59
       5 C6 FOR ELEMENT   6
  Z=  6 CN= 0.000     C6(AA)=   49.11
  Z=  6 CN= 0.987     C6(AA)=   43.25
  Z=  6 CN= 1.998     C6(AA)=   29.36
  Z=  6 CN= 2.999     C6(AA)=   25.78
  Z=  6 CN= 3.984     C6(AA)=   18.21

 #          XYZ [AU]             R0(AA) [ANG.]  CN         C6(AA)     C8(AA)   C10(AA) [AU]
  1   0.00257   0.07088  -1.46485    6  1.455  3.983        18.3       530.5     18795.3
  2  -1.41060   0.71451   0.86199    6  1.455  2.994        25.7       742.8     26315.5
  3   1.41243   0.71727   0.85994    6  1.455  2.994        25.7       742.8     26315.7
  4   0.02243  -1.83236  -2.24500    1  1.091  0.999         3.1        37.4       553.3
  5  -0.02535   1.52251  -2.93790    1  1.091  1.000         3.1        37.4       553.2
  6  -2.73613  -0.45340   1.89501    1  1.091  0.998         3.1        37.4       553.4
  7   2.71090  -0.49121   1.88268    1  1.091  0.998         3.1        37.4       553.4

     MOLECULAR C6(AA) [AU] =       458.99

           DFT-D V3(BJ)
 
 FUNCTIONAL: B3LYP   
 
 PARAMETERS
 S6       :    1.0000
 RS6      :    1.2610
 S18      :    1.7030
 RS18     :    1.0000
 ALPHA6   :   14.0000
 ALPHA8   :   16.0000
 K1-K3    :   16.0000    1.3333    4.0000
 
 EDISP /KCAL,AU:    -0.9354 -0.00149059

 E6    /KCAL :    -0.1055
 E8    /KCAL :    -0.8299
 % E8        : 88.72
 ..... END OF 1-ELECTRON GRADIENT ......
 CPU     0: STEP CPU TIME=     0.02 TOTAL CPU TIME=        258.6 (      4.3 MIN)
 TOTAL WALL CLOCK TIME=        292.7 SECONDS, CPU UTILIZATION IS    88.34%
 MEMORY FOR GRID POINT CONTRIBUTIONS TO THE DFT GRADIENT=    394046 WORDS.
 CPU     0: STEP CPU TIME=     1.11 TOTAL CPU TIME=        259.7 (      4.3 MIN)
 TOTAL WALL CLOCK TIME=        293.9 SECONDS, CPU UTILIZATION IS    88.36%
 ...... END OF 2-ELECTRON GRADIENT ......
 CPU     0: STEP CPU TIME=     1.24 TOTAL CPU TIME=        260.9 (      4.3 MIN)
 TOTAL WALL CLOCK TIME=        295.2 SECONDS, CPU UTILIZATION IS    88.40%

 UNITS ARE HARTREE/BOHR    E'X               E'Y               E'Z 
    1 CARBON           0.000209434      -0.000045485       0.000082270
    2 CARBON          -0.000220678      -0.000107636       0.000017444
    3 CARBON           0.000257340       0.000145610      -0.000098219
    4 HYDROGEN         0.000183830       0.000032753       0.000001890
    5 HYDROGEN        -0.000210252      -0.000003518       0.000024355
    6 HYDROGEN        -0.000083000       0.000148658       0.000045238
    7 HYDROGEN        -0.000136673      -0.000170383      -0.000072978

 ANGLE TO PREVIOUS OPTIMIZATION POINT IS   3.954
 LINEAR INTERPOLATION GIVES ANGLE          3.993

 CURRENT OPTIMIZATION POINT :
 ENERGY                                 =  -116.4842704 HARTREE
 MASS WEIGHTED TANGENT GRADIENT NORM    =     0.0000505 HARTREE/BOHR-SQRT(AMU)
 NEXT GEOMETRY STEP HAS PREDICTED ANGLE =         1.134 DEGREES
 AND CARTESIAN RMS DISPLACEMENT         =     0.0008994 BOHR

 CONSTRAINED OPTIMIZATION POINT   4 FOR PATH POINT  10
 COORDINATES OF SYMMETRY UNIQUE ATOMS (ANGS)
   ATOM   CHARGE       X              Y              Z
 ------------------------------------------------------------
 CARBON      6.0   0.0013468043   0.0374929161  -0.7751561439
 CARBON      6.0  -0.7464150844   0.3781164743   0.4561479143
 CARBON      6.0   0.7474083930   0.3795993215   0.4550426487
 HYDROGEN    1.0   0.0118026009  -0.9696910684  -1.1880306993
 HYDROGEN    1.0  -0.0133664333   0.8057307862  -1.5546135182
 HYDROGEN    1.0  -1.4477349545  -0.2401362468   1.0027195099
 HYDROGEN    1.0   1.4342568310  -0.2601237156   0.9963840567
 ...... END OF ONE-ELECTRON INTEGRALS ......
 CPU     0: STEP CPU TIME=     0.01 TOTAL CPU TIME=        261.0 (      4.3 MIN)
 TOTAL WALL CLOCK TIME=        295.2 SECONDS, CPU UTILIZATION IS    88.40%
  ...... END OF TWO-ELECTRON INTEGRALS .....
 CPU     0: STEP CPU TIME=     0.02 TOTAL CPU TIME=        261.0 (      4.3 MIN)
 TOTAL WALL CLOCK TIME=        295.2 SECONDS, CPU UTILIZATION IS    88.40%

          ---------------------------
              U-B3LYP SCF CALCULATION
          ---------------------------
         DENSITY MATRIX CONVERGENCE THRESHOLD=  2.00E-05
     COARSE -> FINE DFT GRID SWITCH THRESHOLD=  3.00E-04 (SWITCH IN $DFT)
                   HF -> DFT SWITCH THRESHOLD=  5.00E-03 (SWOFF IN $DFT)

 DIRECT SCF CALCULATION, SCHWRZ=T   FDIFF=T

                                                                                                                NONZERO     BLOCKS
 ITER EX      TOTAL ENERGY        E CHANGE  DENSITY CHANGE    DIIS ERROR      VIR. SHIFT       DAMPING        INTEGRALS    SKIPPED
          * * *   INITIATING DIIS PROCEDURE   * * *
   1  0     -116.4827798541  -116.4827798541   0.000027523   0.000034205     0.000000000     1.000000000       90679137      26340
   2  1     -116.4827798729    -0.0000000189   0.000008503   0.000009731     0.000000000     1.000000000       81232978     147602
   3  2     -116.4827798742    -0.0000000013   0.000004756   0.000008024     0.000000000     1.000000000       76294087     206642

          -----------------
          DENSITY CONVERGED
          -----------------
     TIME TO FORM FOCK OPERATORS=       3.4 SECONDS (       1.1 SEC/ITER)
     FOCK TIME ON FIRST ITERATION=       1.2, LAST ITERATION=       1.1
     TIME TO SOLVE SCF EQUATIONS=       0.1 SECONDS (       0.0 SEC/ITER)

          ----------------------------
          DFT-D PARAMETERS AND RESULTS
          ----------------------------
 C6 COEFFICIENTS USED:
       2 C6 FOR ELEMENT   1
  Z=  1 CN= 0.912     C6(AA)=    3.03
  Z=  1 CN= 0.000     C6(AA)=    7.59
       5 C6 FOR ELEMENT   6
  Z=  6 CN= 0.000     C6(AA)=   49.11
  Z=  6 CN= 0.987     C6(AA)=   43.25
  Z=  6 CN= 1.998     C6(AA)=   29.36
  Z=  6 CN= 2.999     C6(AA)=   25.78
  Z=  6 CN= 3.984     C6(AA)=   18.21

 #          XYZ [AU]             R0(AA) [ANG.]  CN         C6(AA)     C8(AA)   C10(AA) [AU]
  1   0.00255   0.07085  -1.46483    6  1.455  3.983        18.3       530.5     18795.3
  2  -1.41052   0.71454   0.86199    6  1.455  2.994        25.7       742.8     26315.5
  3   1.41240   0.71734   0.85991    6  1.455  2.994        25.7       742.8     26315.7
  4   0.02230  -1.83245  -2.24505    1  1.091  0.999         3.1        37.4       553.3
  5  -0.02526   1.52261  -2.93779    1  1.091  1.000         3.1        37.4       553.2
  6  -2.73582  -0.45379   1.89487    1  1.091  0.998         3.1        37.4       553.4
  7   2.71035  -0.49156   1.88289    1  1.091  0.998         3.1        37.4       553.4

     MOLECULAR C6(AA) [AU] =       458.99

           DFT-D V3(BJ)
 
 FUNCTIONAL: B3LYP   
 
 PARAMETERS
 S6       :    1.0000
 RS6      :    1.2610
 S18      :    1.7030
 RS18     :    1.0000
 ALPHA6   :   14.0000
 ALPHA8   :   16.0000
 K1-K3    :   16.0000    1.3333    4.0000
 
 EDISP /KCAL,AU:    -0.9353 -0.00149048

 E6    /KCAL :    -0.1055
 E8    /KCAL :    -0.8298
 % E8        : 88.72

 FINAL U-B3LYP ENERGY IS     -116.4842703559 AFTER   3 ITERATIONS
 DFT EXCHANGE + CORRELATION ENERGY =       -14.2377847196
 TOTAL ELECTRON NUMBER             =        21.9999180633
 GRIMME'S DISPERSION ENERGY                     =       -0.0014904817
 ENERGY WITHOUT GRIMME'S DISPERSION CORRECTION IS     -116.4827798742

          --------------------
          SPIN SZ   =    1.000
          S-SQUARED =    2.006
          --------------------
 ...... END OF UHF CALCULATION ......
 CPU     0: STEP CPU TIME=     3.50 TOTAL CPU TIME=        264.5 (      4.4 MIN)
 TOTAL WALL CLOCK TIME=        299.2 SECONDS, CPU UTILIZATION IS    88.40%

          ----------------------------
          DFT-D PARAMETERS AND RESULTS
          ----------------------------
 C6 COEFFICIENTS USED:
       2 C6 FOR ELEMENT   1
  Z=  1 CN= 0.912     C6(AA)=    3.03
  Z=  1 CN= 0.000     C6(AA)=    7.59
       5 C6 FOR ELEMENT   6
  Z=  6 CN= 0.000     C6(AA)=   49.11
  Z=  6 CN= 0.987     C6(AA)=   43.25
  Z=  6 CN= 1.998     C6(AA)=   29.36
  Z=  6 CN= 2.999     C6(AA)=   25.78
  Z=  6 CN= 3.984     C6(AA)=   18.21

 #          XYZ [AU]             R0(AA) [ANG.]  CN         C6(AA)     C8(AA)   C10(AA) [AU]
  1   0.00255   0.07085  -1.46483    6  1.455  3.983        18.3       530.5     18795.3
  2  -1.41052   0.71454   0.86199    6  1.455  2.994        25.7       742.8     26315.5
  3   1.41240   0.71734   0.85991    6  1.455  2.994        25.7       742.8     26315.7
  4   0.02230  -1.83245  -2.24505    1  1.091  0.999         3.1        37.4       553.3
  5  -0.02526   1.52261  -2.93779    1  1.091  1.000         3.1        37.4       553.2
  6  -2.73582  -0.45379   1.89487    1  1.091  0.998         3.1        37.4       553.4
  7   2.71035  -0.49156   1.88289    1  1.091  0.998         3.1        37.4       553.4

     MOLECULAR C6(AA) [AU] =       458.99

           DFT-D V3(BJ)
 
 FUNCTIONAL: B3LYP   
 
 PARAMETERS
 S6       :    1.0000
 RS6      :    1.2610
 S18      :    1.7030
 RS18     :    1.0000
 ALPHA6   :   14.0000
 ALPHA8   :   16.0000
 K1-K3    :   16.0000    1.3333    4.0000
 
 EDISP /KCAL,AU:    -0.9353 -0.00149048

 E6    /KCAL :    -0.1055
 E8    /KCAL :    -0.8298
 % E8        : 88.72
 ..... END OF 1-ELECTRON GRADIENT ......
 CPU     0: STEP CPU TIME=     0.02 TOTAL CPU TIME=        264.5 (      4.4 MIN)
 TOTAL WALL CLOCK TIME=        299.2 SECONDS, CPU UTILIZATION IS    88.40%
 MEMORY FOR GRID POINT CONTRIBUTIONS TO THE DFT GRADIENT=    394046 WORDS.
 CPU     0: STEP CPU TIME=     1.09 TOTAL CPU TIME=        265.6 (      4.4 MIN)
 TOTAL WALL CLOCK TIME=        300.4 SECONDS, CPU UTILIZATION IS    88.40%
 ...... END OF 2-ELECTRON GRADIENT ......
 CPU     0: STEP CPU TIME=     1.22 TOTAL CPU TIME=        266.8 (      4.4 MIN)
 TOTAL WALL CLOCK TIME=        301.7 SECONDS, CPU UTILIZATION IS    88.44%

 UNITS ARE HARTREE/BOHR    E'X               E'Y               E'Z 
    1 CARBON           0.000202803      -0.000033162       0.000120712
    2 CARBON          -0.000177133      -0.000106393       0.000016664
    3 CARBON           0.000227049       0.000177538      -0.000127411
    4 HYDROGEN         0.000180096       0.000003615      -0.000008443
    5 HYDROGEN        -0.000206801       0.000006871       0.000022291
    6 HYDROGEN        -0.000081364       0.000138717       0.000038448
    7 HYDROGEN        -0.000144650      -0.000187185      -0.000062260

 ANGLE TO PREVIOUS OPTIMIZATION POINT IS   1.134
 LINEAR INTERPOLATION GIVES ANGLE          1.320

 CURRENT OPTIMIZATION POINT :
 ENERGY                                 =  -116.4842704 HARTREE
 MASS WEIGHTED TANGENT GRADIENT NORM    =     0.0000165 HARTREE/BOHR-SQRT(AMU)
 NEXT GEOMETRY STEP HAS PREDICTED ANGLE =         0.230 DEGREES
 AND CARTESIAN RMS DISPLACEMENT         =     0.0001705 BOHR

 *******************************************
 ***** END OF CONSTRAINED OPTIMIZATION *****
 *******************************************

 ANGLE BETWEEN GRADIENTS AT CURRENT AND PREVIOUS IRC POINT =  30.848
 ENERGY WAS LOWERED BY      0.0000101365 HARTREE DURING OPTIMIZATION

 CURRENT ENERGY=     -116.4842703559, IS HIGHER THAN THE
    LAST ENERGY=     -116.4842710934
 YOU ARE NO LONGER ON A STEEPEST DESCENT PATH!
 YOU MAY JUST HAVE PASSED THROUGH A MINIMUM
 EXECUTION OF GAMESS TERMINATED -ABNORMALLY- AT Wed Apr 21 22:06:59 2021
               2667098  WORDS OF DYNAMIC MEMORY USED
 CPU     0: STEP CPU TIME=     0.00 TOTAL CPU TIME=        266.8 (      4.4 MIN)
 TOTAL WALL CLOCK TIME=        301.7 SECONDS, CPU UTILIZATION IS    88.44%
 DDI Process 0: error code 911
 ddikick.x: application process 0 quit unexpectedly.
 ddikick.x: Fatal error detected.
 The error is most likely to be in the application, so check for
 input errors, disk space, memory needs, application bugs, etc.
 ddikick.x will now clean up all processes, and exit...
 DDI Process 1: terminated upon request.
 DDI Process 3: terminated upon request.
 DDI Process 2: terminated upon request.
 DDI Process 5: terminated upon request.
 DDI Process 4: terminated upon request.
 DDI Process 7: terminated upon request.
 DDI Process 6: terminated upon request.
 DDI Process 9: terminated upon request.
 DDI Process 11: terminated upon request.
 DDI Process 10: terminated upon request.
 DDI Process 8: terminated upon request.
 ddikick.x: Sending kill signal to DDI processes.
 ddikick.x: Execution terminated due to error(s).
echo copy *.dat file
copy *.dat file
cp /home/seva/scr/irc_t.dat .
/home/sergey/scripts/rmtmp.sh
My running nodes: [compute-0-8.local ]
Deleting files local temp
unset echo
----- accounting info -----
Files used on the master node compute-0-8.local were:
-rw-rw-r-- 1 seva seva    8140 Apr 21 22:01 /state/partition1/scr/seva/irc_t.F05
-rw-rw-r-- 1 seva seva 3959120 Apr 21 22:06 /state/partition1/scr/seva/irc_t.F10
-rw-rw-r-- 1 seva seva 2052288 Apr 21 22:06 /state/partition1/scr/seva/irc_t.F22
-rw-rw-r-- 1 seva seva 2052288 Apr 21 22:06 /state/partition1/scr/seva/irc_t.F22.001
-rw-rw-r-- 1 seva seva 2052288 Apr 21 22:06 /state/partition1/scr/seva/irc_t.F22.002
-rw-rw-r-- 1 seva seva 2052288 Apr 21 22:06 /state/partition1/scr/seva/irc_t.F22.003
-rw-rw-r-- 1 seva seva 2052288 Apr 21 22:06 /state/partition1/scr/seva/irc_t.F22.004
-rw-rw-r-- 1 seva seva 2052288 Apr 21 22:06 /state/partition1/scr/seva/irc_t.F22.005
-rw-rw-r-- 1 seva seva 2052288 Apr 21 22:06 /state/partition1/scr/seva/irc_t.F22.006
-rw-rw-r-- 1 seva seva 2052288 Apr 21 22:06 /state/partition1/scr/seva/irc_t.F22.007
-rw-rw-r-- 1 seva seva 2052288 Apr 21 22:06 /state/partition1/scr/seva/irc_t.F22.008
-rw-rw-r-- 1 seva seva 2052288 Apr 21 22:06 /state/partition1/scr/seva/irc_t.F22.009
-rw-rw-r-- 1 seva seva 2052288 Apr 21 22:06 /state/partition1/scr/seva/irc_t.F22.010
-rw-rw-r-- 1 seva seva 2052288 Apr 21 22:06 /state/partition1/scr/seva/irc_t.F22.011
ls: No match.
ls: No match.
ls: No match.
Wed Apr 21 22:07:01 PDT 2021
0.377u 0.189s 5:05.69 0.1%	0+0k 144+9064io 1pf+0w
Removing semaphores for seva
