Jobname.Temp
FORCE     R                             cc-pVTZ             
Number of atoms                            I                7
Charge                                     I                0
Multiplicity                               I                1
Number of electrons                        I               22
Number of alpha electrons                  I               11
Number of beta electrons                   I               11
Atomic numbers                             I   N=           7
           6           6           6           1           1           1
           1
Current cartesian coordinates              R   N=          21
  7.88490115E-04  4.43666215E-02 -1.37397265E+00 -1.53359332E+00  7.40450700E-01
  8.25478356E-01  1.53502627E+00  7.40604525E-01  8.24705757E-01  2.88987313E-03
 -1.79896620E+00 -2.27846284E+00 -3.79816432E-03  1.59649827E+00 -2.77206120E+00
 -2.74626642E+00 -6.60288431E-01  1.70916777E+00  2.74495326E+00 -6.62665479E-01
  1.70832768E+00
Nuclear charges                            R   N=           7
  6.00000000E+00  6.00000000E+00  6.00000000E+00  1.00000000E+00  1.00000000E+00
  1.00000000E+00  1.00000000E+00
Number of basis functions                  I              146
Number of contracted shells                I               54
Number of primitive shells                 I              104
Highest angular momentum                   I                3
Largest degree of contraction              I                7
Shell types                                I   N=          54
           0           0           0           0           1           1
           1          -2          -2          -3           0           0
           0           0           1           1           1          -2
          -2          -3           0           0           0           0
           1           1           1          -2          -2          -3
           0           0           0           1           1          -2
           0           0           0           1           1          -2
           0           0           0           1           1          -2
           0           0           0           1           1          -2
Number of primitives per shell             I   N=          54
           7           7           1           1           3           1
           1           1           1           1           7           7
           1           1           3           1           1           1
           1           1           7           7           1           1
           3           1           1           1           1           1
           3           1           1           1           1           1
           3           1           1           1           1           1
           3           1           1           1           1           1
           3           1           1           1           1           1
Shell to atom map                          I   N=          54
           1           1           1           1           1           1
           1           1           1           1           2           2
           2           2           2           2           2           2
           2           2           3           3           3           3
           3           3           3           3           3           3
           4           4           4           4           4           4
           5           5           5           5           5           5
           6           6           6           6           6           6
           7           7           7           7           7           7
Primitive exponents                        R   N=         104
  8.23600000E+03  1.23500000E+03  2.80800000E+02  7.92700000E+01  2.55900000E+01
  8.99700000E+00  3.31900000E+00  8.23600000E+03  1.23500000E+03  7.92700000E+01
  2.55900000E+01  8.99700000E+00  3.31900000E+00  3.64300000E-01  9.05900000E-01
  1.28500000E-01  1.87100000E+01  4.13300000E+00  1.20000000E+00  3.82700000E-01
  1.20900000E-01  1.09700000E+00  3.18000000E-01  7.61000000E-01  8.23600000E+03
  1.23500000E+03  2.80800000E+02  7.92700000E+01  2.55900000E+01  8.99700000E+00
  3.31900000E+00  8.23600000E+03  1.23500000E+03  7.92700000E+01  2.55900000E+01
  8.99700000E+00  3.31900000E+00  3.64300000E-01  9.05900000E-01  1.28500000E-01
  1.87100000E+01  4.13300000E+00  1.20000000E+00  3.82700000E-01  1.20900000E-01
  1.09700000E+00  3.18000000E-01  7.61000000E-01  8.23600000E+03  1.23500000E+03
  2.80800000E+02  7.92700000E+01  2.55900000E+01  8.99700000E+00  3.31900000E+00
  8.23600000E+03  1.23500000E+03  7.92700000E+01  2.55900000E+01  8.99700000E+00
  3.31900000E+00  3.64300000E-01  9.05900000E-01  1.28500000E-01  1.87100000E+01
  4.13300000E+00  1.20000000E+00  3.82700000E-01  1.20900000E-01  1.09700000E+00
  3.18000000E-01  7.61000000E-01  3.38700000E+01  5.09500000E+00  1.15900000E+00
  3.25800000E-01  1.02700000E-01  1.40700000E+00  3.88000000E-01  1.05700000E+00
  3.38700000E+01  5.09500000E+00  1.15900000E+00  3.25800000E-01  1.02700000E-01
  1.40700000E+00  3.88000000E-01  1.05700000E+00  3.38700000E+01  5.09500000E+00
  1.15900000E+00  3.25800000E-01  1.02700000E-01  1.40700000E+00  3.88000000E-01
  1.05700000E+00  3.38700000E+01  5.09500000E+00  1.15900000E+00  3.25800000E-01
  1.02700000E-01  1.40700000E+00  3.88000000E-01  1.05700000E+00
Contraction coefficients                   R   N=         104
  5.41973471E-04  4.19287723E-03  2.15221634E-02  8.35343195E-02  2.39582841E-01
  4.42852844E-01  3.51799564E-01  2.37232194E-06  1.15889290E-05 -9.16984233E-04
 -9.35416084E-03 -5.99779840E-02 -1.72247547E-01  1.07260475E+00  1.00000000E+00
  1.00000000E+00  3.94263872E-02  2.44088985E-01  8.15492009E-01  1.00000000E+00
  1.00000000E+00  1.00000000E+00  1.00000000E+00  1.00000000E+00  5.41973471E-04
  4.19287723E-03  2.15221634E-02  8.35343195E-02  2.39582841E-01  4.42852844E-01
  3.51799564E-01  2.37232194E-06  1.15889290E-05 -9.16984233E-04 -9.35416084E-03
 -5.99779840E-02 -1.72247547E-01  1.07260475E+00  1.00000000E+00  1.00000000E+00
  3.94263872E-02  2.44088985E-01  8.15492009E-01  1.00000000E+00  1.00000000E+00
  1.00000000E+00  1.00000000E+00  1.00000000E+00  5.41973471E-04  4.19287723E-03
  2.15221634E-02  8.35343195E-02  2.39582841E-01  4.42852844E-01  3.51799564E-01
  2.37232194E-06  1.15889290E-05 -9.16984233E-04 -9.35416084E-03 -5.99779840E-02
 -1.72247547E-01  1.07260475E+00  1.00000000E+00  1.00000000E+00  3.94263872E-02
  2.44088985E-01  8.15492009E-01  1.00000000E+00  1.00000000E+00  1.00000000E+00
  1.00000000E+00  1.00000000E+00  2.54948632E-02  1.90362766E-01  8.52162022E-01
  1.00000000E+00  1.00000000E+00  1.00000000E+00  1.00000000E+00  1.00000000E+00
  2.54948632E-02  1.90362766E-01  8.52162022E-01  1.00000000E+00  1.00000000E+00
  1.00000000E+00  1.00000000E+00  1.00000000E+00  2.54948632E-02  1.90362766E-01
  8.52162022E-01  1.00000000E+00  1.00000000E+00  1.00000000E+00  1.00000000E+00
  1.00000000E+00  2.54948632E-02  1.90362766E-01  8.52162022E-01  1.00000000E+00
  1.00000000E+00  1.00000000E+00  1.00000000E+00  1.00000000E+00
Coordinates of each shell                  R   N=         162
  7.88490115E-04  4.43666215E-02 -1.37397265E+00  7.88490115E-04  4.43666215E-02
 -1.37397265E+00  7.88490115E-04  4.43666215E-02 -1.37397265E+00  7.88490115E-04
  4.43666215E-02 -1.37397265E+00  7.88490115E-04  4.43666215E-02 -1.37397265E+00
  7.88490115E-04  4.43666215E-02 -1.37397265E+00  7.88490115E-04  4.43666215E-02
 -1.37397265E+00  7.88490115E-04  4.43666215E-02 -1.37397265E+00  7.88490115E-04
  4.43666215E-02 -1.37397265E+00  7.88490115E-04  4.43666215E-02 -1.37397265E+00
 -1.53359332E+00  7.40450700E-01  8.25478356E-01 -1.53359332E+00  7.40450700E-01
  8.25478356E-01 -1.53359332E+00  7.40450700E-01  8.25478356E-01 -1.53359332E+00
  7.40450700E-01  8.25478356E-01 -1.53359332E+00  7.40450700E-01  8.25478356E-01
 -1.53359332E+00  7.40450700E-01  8.25478356E-01 -1.53359332E+00  7.40450700E-01
  8.25478356E-01 -1.53359332E+00  7.40450700E-01  8.25478356E-01 -1.53359332E+00
  7.40450700E-01  8.25478356E-01 -1.53359332E+00  7.40450700E-01  8.25478356E-01
  1.53502627E+00  7.40604525E-01  8.24705757E-01  1.53502627E+00  7.40604525E-01
  8.24705757E-01  1.53502627E+00  7.40604525E-01  8.24705757E-01  1.53502627E+00
  7.40604525E-01  8.24705757E-01  1.53502627E+00  7.40604525E-01  8.24705757E-01
  1.53502627E+00  7.40604525E-01  8.24705757E-01  1.53502627E+00  7.40604525E-01
  8.24705757E-01  1.53502627E+00  7.40604525E-01  8.24705757E-01  1.53502627E+00
  7.40604525E-01  8.24705757E-01  1.53502627E+00  7.40604525E-01  8.24705757E-01
  2.88987313E-03 -1.79896620E+00 -2.27846284E+00  2.88987313E-03 -1.79896620E+00
 -2.27846284E+00  2.88987313E-03 -1.79896620E+00 -2.27846284E+00  2.88987313E-03
 -1.79896620E+00 -2.27846284E+00  2.88987313E-03 -1.79896620E+00 -2.27846284E+00
  2.88987313E-03 -1.79896620E+00 -2.27846284E+00 -3.79816432E-03  1.59649827E+00
 -2.77206120E+00 -3.79816432E-03  1.59649827E+00 -2.77206120E+00 -3.79816432E-03
  1.59649827E+00 -2.77206120E+00 -3.79816432E-03  1.59649827E+00 -2.77206120E+00
 -3.79816432E-03  1.59649827E+00 -2.77206120E+00 -3.79816432E-03  1.59649827E+00
 -2.77206120E+00 -2.74626642E+00 -6.60288431E-01  1.70916777E+00 -2.74626642E+00
 -6.60288431E-01  1.70916777E+00 -2.74626642E+00 -6.60288431E-01  1.70916777E+00
 -2.74626642E+00 -6.60288431E-01  1.70916777E+00 -2.74626642E+00 -6.60288431E-01
  1.70916777E+00 -2.74626642E+00 -6.60288431E-01  1.70916777E+00  2.74495326E+00
 -6.62665479E-01  1.70832768E+00  2.74495326E+00 -6.62665479E-01  1.70832768E+00
  2.74495326E+00 -6.62665479E-01  1.70832768E+00  2.74495326E+00 -6.62665479E-01
  1.70832768E+00  2.74495326E+00 -6.62665479E-01  1.70832768E+00  2.74495326E+00
 -6.62665479E-01  1.70832768E+00
Overlap Matrix                             R   N=       10731
  1.00000000E+00  1.06072740E-01  1.00000000E+00  5.16996772E-01  7.66249379E-01
  1.00000000E+00  1.47493045E-01  8.35027567E-01  5.35796369E-01  1.00000000E+00
  9.17240417E-20 -1.85923522E-19 -2.63291084E-19 -6.65245984E-20  1.00000000E+00
 -2.14115749E-19 -9.18049983E-18 -1.22156078E-17  0.00000000E+00  0.00000000E+00
  1.00000000E+00 -8.89254897E-17  3.76192763E-16  0.00000000E+00 -1.80321076E-16
 -6.51634859E-35  0.00000000E+00  1.00000000E+00  3.45553176E-20 -1.28456328E-20
  1.17190213E-19  0.00000000E+00  6.11572820E-01  3.84035081E-37  0.00000000E+00
  1.00000000E+00 -2.06670249E-19  9.09438441E-21  7.50017364E-18  6.93792167E-18
  3.84035081E-37  6.11572820E-01  0.00000000E+00  0.00000000E+00  1.00000000E+00
 -3.81302464E-17  2.21811289E-17  0.00000000E+00  0.00000000E+00  0.00000000E+00
  0.00000000E+00  6.11572820E-01  0.00000000E+00  0.00000000E+00  1.00000000E+00
  1.27722451E-20  5.92273685E-20  0.00000000E+00  0.00000000E+00  2.21926537E-01
  4.09382938E-37  3.18337193E-36  6.74476215E-01  1.02214586E-36  0.00000000E+00
  1.00000000E+00 -8.72255839E-21  9.65242392E-23  0.00000000E+00 -4.82203973E-18
  4.09382938E-37  2.21926537E-01  0.00000000E+00  1.02214586E-36  6.74476215E-01
  0.00000000E+00  0.00000000E+00  1.00000000E+00 -1.18625950E-17  1.39202084E-16
 -7.99152193E-17  0.00000000E+00  3.18337193E-36  0.00000000E+00  2.21926537E-01
  0.00000000E+00  0.00000000E+00  6.74476215E-01  0.00000000E+00  0.00000000E+00
  1.00000000E+00  0.00000000E+00  0.00000000E+00  0.00000000E+00  0.00000000E+00
 -1.05930344E-19 -6.82637249E-18 -4.33890688E-16  0.00000000E+00  0.00000000E+00
  0.00000000E+00  0.00000000E+00  2.32113288E-18  0.00000000E+00  1.00000000E+00
 -6.33250985E-36  2.47243564E-37 -1.04915191E-34 -5.06669141E-35 -3.75760358E-16
 -1.30765175E-51  1.83476737E-19  0.00000000E+00  0.00000000E+00  0.00000000E+00
  0.00000000E+00  0.00000000E+00  0.00000000E+00  0.00000000E+00  1.00000000E+00
 -8.10561261E-34  3.16471762E-35  0.00000000E+00  0.00000000E+00 -1.30765175E-51
 -3.75760358E-16  1.18236240E-17  0.00000000E+00  0.00000000E+00  0.00000000E+00
  0.00000000E+00  0.00000000E+00 -4.02032007E-18  0.00000000E+00  0.00000000E+00
  1.00000000E+00  0.00000000E+00  0.00000000E+00  0.00000000E+00  0.00000000E+00
  1.83476737E-19 -1.18236240E-17  0.00000000E+00  0.00000000E+00  0.00000000E+00
  0.00000000E+00  0.00000000E+00  4.02032007E-18  0.00000000E+00  0.00000000E+00
  0.00000000E+00  0.00000000E+00  1.00000000E+00  3.95781866E-37 -1.54527228E-38
  0.00000000E+00  0.00000000E+00  1.18236240E-17  1.83476737E-19 -1.30765175E-51
  0.00000000E+00  0.00000000E+00  0.00000000E+00 -4.02032007E-18  0.00000000E+00
  0.00000000E+00  0.00000000E+00  0.00000000E+00  0.00000000E+00  0.00000000E+00
  1.00000000E+00  0.00000000E+00  0.00000000E+00  0.00000000E+00  0.00000000E+00
 -3.18935599E-21  1.99185891E-18 -1.53985628E-16  0.00000000E+00  0.00000000E+00
  0.00000000E+00  0.00000000E+00  3.40958081E-18  0.00000000E+00  5.31577394E-01
  0.00000000E+00  0.00000000E+00  0.00000000E+00  0.00000000E+00  1.00000000E+00
 -4.57447134E-36  2.23973408E-36  0.00000000E+00  0.00000000E+00 -1.33355465E-16
 -7.79680608E-53  5.52412661E-21  0.00000000E+00  0.00000000E+00  0.00000000E+00
  0.00000000E+00  0.00000000E+00  0.00000000E+00  0.00000000E+00  5.31577394E-01
  0.00000000E+00  0.00000000E+00  0.00000000E+00  0.00000000E+00  1.00000000E+00
 -1.47146027E-39 -6.44086411E-42  0.00000000E+00  1.68860499E-33 -7.79680608E-53
 -1.33355465E-16 -3.45000083E-18  0.00000000E+00  0.00000000E+00  0.00000000E+00
  0.00000000E+00  0.00000000E+00 -5.90556720E-18  0.00000000E+00  0.00000000E+00
  5.31577394E-01  0.00000000E+00  0.00000000E+00  0.00000000E+00  0.00000000E+00
  1.00000000E+00  0.00000000E+00  0.00000000E+00  0.00000000E+00  0.00000000E+00
  5.52412661E-21  3.45000083E-18  0.00000000E+00  0.00000000E+00  0.00000000E+00
  0.00000000E+00  0.00000000E+00  5.90556720E-18  0.00000000E+00  0.00000000E+00
  0.00000000E+00  0.00000000E+00  5.31577394E-01  0.00000000E+00  0.00000000E+00
  0.00000000E+00  0.00000000E+00  1.00000000E+00  3.59726163E-40  3.14495318E-45
  0.00000000E+00  0.00000000E+00 -3.45000083E-18  5.52412661E-21 -7.79680608E-53
  0.00000000E+00  0.00000000E+00  0.00000000E+00 -5.90556720E-18  0.00000000E+00
  0.00000000E+00  0.00000000E+00  0.00000000E+00  0.00000000E+00  0.00000000E+00
  5.31577394E-01  0.00000000E+00  0.00000000E+00  0.00000000E+00  0.00000000E+00
  1.00000000E+00  0.00000000E+00  0.00000000E+00  4.93038066E-32  0.00000000E+00
  0.00000000E+00  0.00000000E+00  0.00000000E+00  0.00000000E+00  0.00000000E+00
  1.11022302E-16  0.00000000E+00  0.00000000E+00 -1.11022302E-16  0.00000000E+00
  0.00000000E+00  0.00000000E+00  0.00000000E+00  0.00000000E+00  0.00000000E+00
 -1.06073955E-19  0.00000000E+00  0.00000000E+00  0.00000000E+00  1.00000000E+00
  3.76158192E-37  0.00000000E+00  0.00000000E+00  0.00000000E+00  0.00000000E+00
  0.00000000E+00  0.00000000E+00  0.00000000E+00 -6.26532716E-37  0.00000000E+00
  5.55111512E-17  0.00000000E+00  0.00000000E+00  0.00000000E+00  0.00000000E+00
  0.00000000E+00  0.00000000E+00  0.00000000E+00  1.50011225E-19  0.00000000E+00
  0.00000000E+00 -4.33045106E-20  0.00000000E+00  0.00000000E+00  1.00000000E+00
  9.62964972E-35 -4.81482486E-35  0.00000000E+00  0.00000000E+00  0.00000000E+00
  0.00000000E+00  0.00000000E+00 -6.26532716E-37  0.00000000E+00  0.00000000E+00
  0.00000000E+00  5.55111512E-17  0.00000000E+00  0.00000000E+00  0.00000000E+00
  0.00000000E+00  0.00000000E+00  0.00000000E+00  0.00000000E+00  0.00000000E+00
  0.00000000E+00  0.00000000E+00 -4.33045106E-20  0.00000000E+00  0.00000000E+00
  1.00000000E+00  0.00000000E+00  0.00000000E+00  0.00000000E+00  0.00000000E+00
  0.00000000E+00  0.00000000E+00  0.00000000E+00  0.00000000E+00  0.00000000E+00
  0.00000000E+00  0.00000000E+00  0.00000000E+00  0.00000000E+00  0.00000000E+00
  0.00000000E+00  0.00000000E+00  0.00000000E+00  0.00000000E+00  0.00000000E+00
  1.36940886E-19  0.00000000E+00  0.00000000E+00  0.00000000E+00  0.00000000E+00
  0.00000000E+00  0.00000000E+00  1.00000000E+00 -1.54305964E-52  2.08985011E-53
  0.00000000E+00 -5.23057726E-52  0.00000000E+00  0.00000000E+00  0.00000000E+00
  0.00000000E+00  0.00000000E+00  1.98127041E-36  0.00000000E+00  0.00000000E+00
  0.00000000E+00  0.00000000E+00  0.00000000E+00  0.00000000E+00  0.00000000E+00
  0.00000000E+00  0.00000000E+00  0.00000000E+00  1.36940886E-19  0.00000000E+00
  0.00000000E+00  0.00000000E+00  0.00000000E+00  0.00000000E+00  0.00000000E+00
  1.00000000E+00 -3.76158192E-37 -9.40395481E-38  0.00000000E+00  2.40741243E-35
  5.55111512E-17  0.00000000E+00  0.00000000E+00  1.11022302E-16 -2.42655077E-36
  0.00000000E+00 -5.55111512E-17  0.00000000E+00  0.00000000E+00  0.00000000E+00
  0.00000000E+00  0.00000000E+00  0.00000000E+00  0.00000000E+00  0.00000000E+00
  0.00000000E+00  0.00000000E+00  1.67717648E-19  0.00000000E+00  0.00000000E+00
 -1.11022302E-16  0.00000000E+00  0.00000000E+00  0.00000000E+00  1.00000000E+00
  2.88889492E-34 -1.44444746E-34  0.00000000E+00 -1.54074396E-33  0.00000000E+00
 -5.55111512E-17  0.00000000E+00  2.42655077E-36 -1.11022302E-16  0.00000000E+00
  0.00000000E+00  5.55111512E-17  0.00000000E+00  0.00000000E+00  0.00000000E+00
  0.00000000E+00  0.00000000E+00  0.00000000E+00  0.00000000E+00  0.00000000E+00
  0.00000000E+00  0.00000000E+00  1.67717648E-19  0.00000000E+00  0.00000000E+00
  2.49800181E-16  0.00000000E+00  0.00000000E+00  0.00000000E+00  1.00000000E+00
  3.65315598E-07  2.39470212E-02  1.53201260E-03  5.64358858E-02 -8.70159677E-04
  3.94754614E-04  1.24732551E-03 -3.58290815E-02  1.62541377E-02  5.13589962E-02
 -5.94429647E-02  2.69667570E-02  8.52081847E-02  3.45842126E-03 -5.91418046E-03
  2.68301334E-03  1.63836521E-03 -1.87172474E-03  6.14826178E-02 -1.05140256E-01
  4.76976838E-02  2.91262905E-02 -3.32748754E-02  3.35150337E-03 -4.08095187E-02
  1.85135513E-02  2.09483702E-02 -2.39321382E-02 -2.87404618E-03  9.52251570E-03
  1.00000000E+00  2.39470212E-02  2.68223567E-01  1.24979132E-01  4.07328785E-01
 -6.61161787E-02  2.99941117E-02  9.47738659E-02 -2.25151738E-01  1.02141814E-01
  3.22742498E-01 -3.25271296E-01  1.47561819E-01  4.66258317E-01  5.56028360E-02
 -9.50853528E-02  4.31361998E-02  2.63408490E-02 -3.00926914E-02  1.88154876E-01
 -3.21760076E-01  1.45968927E-01  8.91350068E-02 -1.01830896E-01  7.56556000E-03
 -9.21219013E-02  4.17918073E-02  4.72880777E-02 -5.40235255E-02 -6.48776578E-03
  2.14957755E-02  1.06072740E-01  1.00000000E+00  1.53201260E-03  1.24979132E-01
  3.08985541E-02  2.25849979E-01 -2.27156120E-02  1.03051117E-02  3.25615668E-02
 -1.47819997E-01  6.70596758E-02  2.11891747E-01 -2.14839588E-01  9.74636274E-02
  3.07960604E-01  3.90140985E-02 -6.67172682E-02  3.02668006E-02  1.84822313E-02
 -2.11147364E-02  1.85455344E-01 -3.17143658E-01  1.43874654E-01  8.78561519E-02
 -1.00369888E-01  1.16568341E-02 -1.41939225E-01  6.43918185E-02  7.28603407E-02
 -8.32381578E-02 -9.99619455E-03  3.31201774E-02  5.16996772E-01  7.66249379E-01
  1.00000000E+00  5.64358858E-02  4.07328785E-01  2.25849979E-01  6.10662034E-01
 -5.30626980E-02  2.40723000E-02  7.60624271E-02 -1.84277734E-01  8.35990080E-02
  2.64151886E-01 -3.40571963E-01  1.54503084E-01  4.88190973E-01  1.88845321E-02
 -3.22940794E-02  1.46504569E-02  8.94620931E-03 -1.02204570E-02  8.87328062E-02
 -1.51740285E-01  6.88381445E-02  4.20355798E-02 -4.80228913E-02  1.33548062E-03
 -1.62614551E-02  7.37713386E-03  8.34734130E-03 -9.53628964E-03 -1.14522725E-03
  3.79445693E-03  1.47493045E-01  8.35027567E-01  5.35796369E-01  1.00000000E+00
  8.70159677E-04  6.61161787E-02  2.27156120E-02  5.30626980E-02 -1.28176700E-02
  8.92183853E-03  2.81907708E-02 -2.44171708E-02  3.99273597E-02  1.26160437E-01
  4.56895605E-02  2.24219420E-02  7.08477099E-02  4.95837115E-02 -4.29995381E-02
  3.07338965E-02  1.50320374E-03 -1.36085295E-02  1.65781458E-01 -2.99545708E-02
  8.16994001E-02 -5.48485999E-02 -9.48004743E-03  8.10313897E-02 -1.04811848E-01
  7.85441281E-02 -9.44811938E-03 -5.00391962E-02  1.91445808E-02  1.61931336E-03
 -1.26963168E-17 -3.29368918E-17  0.00000000E+00 -4.91369715E-17  1.00000000E+00
 -3.94754614E-04 -2.99941117E-02 -1.03051117E-02 -2.40723000E-02  8.92183853E-03
  2.80132520E-03 -1.27889595E-02  3.99273597E-02  4.54815658E-02 -5.72336501E-02
  2.24219420E-02  8.49424796E-02 -3.21406072E-02 -2.24940311E-02  3.07338965E-02
  1.08046842E-02 -1.63460650E-02 -7.53756771E-03 -7.52080302E-02  8.16994001E-02
  1.13072288E-01 -7.01477471E-02 -7.88815305E-02 -3.67605117E-02  7.85441281E-02
  3.26912412E-02 -7.58482668E-02 -4.74429512E-02  3.91427652E-02  1.37005897E-02
 -1.84700183E-17  7.45421260E-17  0.00000000E+00  1.12199887E-16 -1.12749566E-32
  1.00000000E+00 -1.24732551E-03 -9.47738659E-02 -3.25615668E-02 -7.60624271E-02
  2.81907708E-02 -1.27889595E-02 -3.35611168E-02  1.26160437E-01 -5.72336501E-02
 -1.17249053E-01  7.08477099E-02 -3.21406072E-02 -6.44188728E-03 -2.82118221E-02
  7.98471435E-02 -3.62232693E-02 -2.69021111E-02  3.07338965E-02  2.24044146E-02
  1.53411777E-01 -6.95964297E-02 -7.15134294E-02  8.16994001E-02  5.12034452E-02
  1.08532877E-01 -4.92367725E-02 -8.85922600E-02  1.01210843E-01  1.55113251E-02
 -5.13933416E-02  1.42755881E-16 -1.70000086E-16 -1.95449725E-16 -6.81211888E-17
 -9.86629348E-33  0.00000000E+00  1.00000000E+00  3.58290815E-02  2.25151738E-01
  1.47819997E-01  1.84277734E-01 -2.44171708E-02  3.99273597E-02  1.26160437E-01
  2.27876904E-02  9.40857246E-02  2.97287279E-01  1.89038934E-01  6.53872805E-02
  2.06607397E-01  1.14702336E-01 -3.25455741E-02  5.87139704E-02 -3.17307074E-02
 -1.03000503E-02  3.11304127E-01  6.43789509E-02  1.31095758E-01 -1.66454161E-01
  2.03747038E-02  1.19883612E-01 -5.27810997E-02  7.33964673E-02 -7.38194455E-02
 -1.27227306E-02  3.86040488E-02 -2.41203754E-02 -4.57977460E-17  2.24851275E-17
 -2.40005557E-16  0.00000000E+00  6.11572820E-01 -1.25840615E-32  0.00000000E+00
  1.00000000E+00 -1.62541377E-02 -1.02141814E-01 -6.70596758E-02 -8.35990080E-02
  3.99273597E-02  4.54815658E-02 -5.72336501E-02  9.40857246E-02  1.87498639E-01
 -1.34866655E-01  6.53872805E-02  3.03509020E-01 -9.37290309E-02 -5.20355947E-02
  5.87139704E-02  7.02418974E-02 -4.69251431E-02 -4.90021779E-02 -1.41225506E-01
  1.31095758E-01  2.93881426E-01 -1.48146341E-01 -2.05017667E-01 -5.43861204E-02
  7.33964673E-02  7.57102498E-02 -9.43624667E-02 -1.06139456E-01  5.87943225E-02
  3.39731598E-02  5.86335812E-19 -1.47275539E-16  0.00000000E+00  0.00000000E+00
 -1.25840615E-32  6.11572820E-01  0.00000000E+00  0.00000000E+00  1.00000000E+00
 -5.13589962E-02 -3.22742498E-01 -2.11891747E-01 -2.64151886E-01  1.26160437E-01
 -5.72336501E-02 -1.17249053E-01  2.97287279E-01 -1.34866655E-01 -1.95963435E-01
  2.06607397E-01 -9.37290309E-02  3.70122456E-02  3.37809444E-03  1.17937388E-01
 -5.35032010E-02 -5.13937358E-02  5.87139704E-02  1.65789963E-01  1.67722736E-01
 -7.60887061E-02 -1.14751237E-01  1.31095758E-01  9.51653310E-02  9.11367166E-03
 -4.13448707E-03 -5.71370490E-02  6.52753289E-02  1.31945888E-02 -4.37173487E-02
 -5.93941673E-19  1.47275518E-16  1.20002778E-16  0.00000000E+00  0.00000000E+00
  0.00000000E+00  6.11572820E-01  0.00000000E+00  0.00000000E+00  1.00000000E+00
  5.94429647E-02  3.25271296E-01  2.14839588E-01  3.40571963E-01  4.56895605E-02
  2.24219420E-02  7.08477099E-02  1.89038934E-01  6.53872805E-02  2.06607397E-01
  4.49774936E-01  8.11878320E-02  2.56533175E-01  3.85274379E-02  2.67170557E-02
  1.27554664E-02 -3.04642679E-02  8.45543596E-03  1.69502524E-01  1.54649508E-01
  4.92522529E-02 -1.53549618E-01  4.89436047E-02  2.74107893E-02  5.88375368E-03
  9.26868914E-03 -2.73810904E-02  7.85122973E-03  1.06308839E-02 -1.01688045E-02
 -1.83643951E-17  1.09462578E-17  0.00000000E+00  0.00000000E+00  2.21926537E-01
  0.00000000E+00  0.00000000E+00  6.74476215E-01 -1.67468377E-32 -1.67468377E-32
  1.00000000E+00 -2.69667570E-02 -1.47561819E-01 -9.74636274E-02 -1.54503084E-01
  2.24219420E-02  8.49424796E-02 -3.21406072E-02  6.53872805E-02  3.03509020E-01
 -9.37290309E-02  8.11878320E-02  5.91906219E-01 -1.16378243E-01 -1.74782678E-02
  1.27554664E-02  4.90473823E-02 -2.08874692E-02 -3.42164526E-02 -7.68961204E-02
  4.92522529E-02  2.40872847E-01 -9.69469960E-02 -1.68037803E-01 -1.24351149E-02
  9.26868914E-03  2.21099621E-02 -1.84421778E-02 -3.05776064E-02  1.35981298E-02
  1.01728794E-02  7.00792053E-18 -3.00895266E-18  0.00000000E+00 -7.71526357E-17
  0.00000000E+00  2.21926537E-01  0.00000000E+00 -1.67468377E-32  6.74476215E-01
  8.37341886E-33 -1.19216604E-32  1.00000000E+00 -8.52081847E-02 -4.66258317E-01
 -3.07960604E-01 -4.88190973E-01  7.08477099E-02 -3.21406072E-02 -6.44188728E-03
  2.06607397E-01 -9.37290309E-02  3.70122456E-02  2.56533175E-01 -1.16378243E-01
  2.61011660E-01  3.97483295E-02  2.05075947E-03 -9.30342768E-04 -1.11651633E-02
  1.27554664E-02  2.12931924E-01 -2.80004373E-02  1.27026132E-02 -4.31116692E-02
  4.92522529E-02  2.51659267E-02 -2.44982988E-02  1.11138412E-02 -8.82928928E-05
  1.00868836E-04  1.30497219E-03 -4.32373643E-03  7.66315782E-18  6.35877622E-17
  0.00000000E+00  0.00000000E+00  0.00000000E+00  0.00000000E+00  2.21926537E-01
 -1.67468377E-32  8.37341886E-33  6.74476215E-01  0.00000000E+00  0.00000000E+00
  1.00000000E+00  3.45842126E-03  5.56028360E-02  3.90140985E-02  1.88845321E-02
 -4.95837115E-02  2.24940311E-02  2.82118221E-02 -1.14702336E-01  5.20355947E-02
 -3.37809444E-03 -3.85274379E-02  1.74782678E-02 -3.97483295E-02 -3.60139560E-02
 -8.72110331E-02  3.95639543E-02  5.05180036E-02 -5.77135038E-02 -1.36186358E-01
 -5.27460408E-02  2.39286461E-02  7.85696038E-02 -8.97606162E-02 -1.56774840E-01
  9.70493585E-03 -4.40271861E-03  1.01192526E-01 -1.15605820E-01 -2.74428463E-02
  9.09257951E-02  0.00000000E+00  0.00000000E+00  0.00000000E+00  0.00000000E+00
  2.18443920E-16  0.00000000E+00  1.79227143E-16 -1.92745867E-16  0.00000000E+00
 -1.92745867E-16 -7.42762520E-17  3.71381260E-17 -7.42762520E-17  1.00000000E+00
 -5.91418046E-03 -9.50853528E-02 -6.67172682E-02 -3.22940794E-02  4.29995381E-02
 -3.07338965E-02 -7.98471435E-02  3.25455741E-02 -5.87139704E-02 -1.17937388E-01
 -2.67170557E-02 -1.27554664E-02 -2.05075947E-03 -8.72110331E-02  1.01145272E-01
 -7.48771822E-02 -1.40534655E-03  3.94430447E-02 -5.27460408E-02  1.78484281E-02
 -5.84379840E-02  7.18506081E-02  9.72639037E-03 -3.77982005E-02  1.27361974E-01
 -9.10906592E-02  2.53571285E-02  8.02693424E-02 -4.61440338E-02  1.17737723E-03
 -2.35263642E-32  3.18630424E-33  0.00000000E+00  0.00000000E+00  1.55215259E-16
  0.00000000E+00 -3.78355967E-16 -1.66922817E-16  0.00000000E+00  3.33845635E-16
 -6.43251211E-17  3.86253737E-48  1.28650242E-16  0.00000000E+00  1.00000000E+00
  2.68301334E-03  4.31361998E-02  3.02668006E-02  1.46504569E-02 -3.07338965E-02
 -1.08046842E-02  3.62232693E-02 -5.87139704E-02 -7.02418974E-02  5.35032010E-02
 -1.27554664E-02 -4.90473823E-02  9.30342768E-04  3.95639543E-02 -7.48771822E-02
 -2.99382879E-02  5.04803618E-02  2.57349629E-02  2.39286461E-02 -5.84379840E-02
 -8.44558885E-02  8.83456836E-02  1.01450315E-01  1.71474436E-02 -9.10906592E-02
 -3.21056702E-02  1.32394403E-01  8.95424180E-02 -9.06101903E-02 -3.41998087E-02
  0.00000000E+00 -4.66887299E-32  5.37165779E-32  0.00000000E+00  0.00000000E+00
  1.55215259E-16  0.00000000E+00  0.00000000E+00 -1.66922817E-16  0.00000000E+00
  3.86253737E-48 -6.43251211E-17 -6.43251211E-17  0.00000000E+00 -1.08172552E-31
  1.00000000E+00  1.63836521E-03  2.63408490E-02  1.84822313E-02  8.94620931E-03
 -1.50320374E-03  1.63460650E-02  2.69021111E-02  3.17307074E-02  4.69251431E-02
  5.13937358E-02  3.04642679E-02  2.08874692E-02  1.11651633E-02  5.05180036E-02
 -1.40534655E-03  5.04803618E-02 -1.57645845E-02 -1.78304468E-02  7.85696038E-02
  7.18506081E-02  8.83456836E-02 -1.50005952E-02 -1.94462039E-02  9.60685811E-02
  7.58038790E-03  1.11014337E-01 -5.74105685E-02 -5.47661896E-02  9.41241175E-03
  1.45375808E-02  0.00000000E+00  0.00000000E+00  0.00000000E+00  0.00000000E+00
 -3.78355967E-16  0.00000000E+00  0.00000000E+00  3.33845635E-16  0.00000000E+00
  0.00000000E+00  1.28650242E-16  6.43251211E-17  0.00000000E+00  0.00000000E+00
  0.00000000E+00  0.00000000E+00  1.00000000E+00 -1.87172474E-03 -3.00926914E-02
 -2.11147364E-02 -1.02204570E-02  1.36085295E-02  7.53756771E-03 -3.07338965E-02
  1.03000503E-02  4.90021779E-02 -5.87139704E-02 -8.45543596E-03  3.42164526E-02
 -1.27554664E-02 -5.77135038E-02  3.94430447E-02  2.57349629E-02 -1.78304468E-02
 -1.10018837E-02 -8.97606162E-02  9.72639037E-03  1.01450315E-01 -1.94462039E-02
 -9.80630856E-03 -1.09752049E-01  7.82255992E-02  6.46960005E-02 -5.47661896E-02
 -4.27819401E-02  1.47674358E-02 -8.90574098E-03  0.00000000E+00  0.00000000E+00
  0.00000000E+00  0.00000000E+00  0.00000000E+00 -3.78355967E-16  0.00000000E+00
  0.00000000E+00  3.33845635E-16  0.00000000E+00 -6.43251211E-17  1.28650242E-16
  3.86253737E-48  1.24906904E-31  0.00000000E+00  0.00000000E+00  0.00000000E+00
  1.00000000E+00  6.14826178E-02  1.88154876E-01  1.85455344E-01  8.87328062E-02
 -1.65781458E-01  7.52080302E-02 -2.24044146E-02 -3.11304127E-01  1.41225506E-01
 -1.65789963E-01 -1.69502524E-01  7.68961204E-02 -2.12931924E-01 -1.36186358E-01
 -5.27460408E-02  2.39286461E-02  7.85696038E-02 -8.97606162E-02 -2.82738040E-01
 -1.59008010E-02  7.21352039E-03  1.56344642E-01 -1.78613493E-01 -7.90103623E-02
  6.06207417E-02 -2.75010646E-02  5.43332442E-02 -6.20721659E-02 -2.20397405E-02
  7.30238002E-02  0.00000000E+00  0.00000000E+00  0.00000000E+00  0.00000000E+00
  6.72152774E-18 -3.26590053E-18  6.53180106E-18 -1.43045706E-16  0.00000000E+00
  0.00000000E+00 -1.09106586E-16  5.45532930E-17 -1.09106586E-16  5.31577394E-01
  0.00000000E+00  1.07056434E-32  0.00000000E+00  0.00000000E+00  1.00000000E+00
 -1.05140256E-01 -3.21760076E-01 -3.17143658E-01 -1.51740285E-01  2.99545708E-02
 -8.16994001E-02 -1.53411777E-01 -6.43789509E-02 -1.31095758E-01 -1.67722736E-01
 -1.54649508E-01 -4.92522529E-02  2.80004373E-02 -5.27460408E-02  1.78484281E-02