
 Primary working directories    : /state/partition1/scr/alex
 Secondary working directories  : /state/partition1/scr/alex
 Wavefunction directory         : /home/alex/wfu/
 Main file repository           : /state/partition1/scr/alex/

 SHA1      : 2c68d29c09da70e1723824271fadde4bcd5f07a0
 ARCHNAME  : Linux/x86_64
 FC        : /usr/bin/gfortran
 FCVERSION : 4.4.7
 BLASLIB   : -L/share/apps/intel/composer_xe_2013.0.079/mkl/lib/intel64 -lmkl_intel_ilp64 -lmkl_sequential -lmkl_core
 id        : varganov

 Nodes            nprocs
 compute-0-7.local   11
 Number of processes for MPI-2 version of Molpro:   nprocs(total)=   12   nprocs(compute)=   11   nprocs(helper)=    1
 ga_uses_ma=false, calling ma_init with nominal heap.
 GA-space will be limited to   8.0 MW (determined by -G option)

 Using customized tuning parameters: mindgm=12; mindgv=20; mindgc=4; mindgr=1; noblas=0; minvec=7
 default implementation of scratch files=sf  

  ***hno,
                                                                                 !memory,2080,m
 memory,500,m
 file,2,hess.wfu;
                                                                                 !gdirect
 print,orbitals
 
  symmetry,nosym
  geomtyp=xyz
   geometry={
 5
 O       1.2631869     -0.4454821     -0.1637228
 N       0.5914275      0.5426038      0.1747224
 H      -0.5501378      0.2955157      0.0215067
 O      -1.8915432      0.0498048     -0.1413675
 H      -1.9628014     -0.8492951     -0.4826822
                }
  basis=aug-cc-pVTZ
 
 
   {rhf;
   wf,26,1,0;
   }
 
 uccsd(t)
 
 {frequencies
 print,hessian
 }

 Variables initialized (766), CPU time= 0.03 sec
 Commands  initialized (545), CPU time= 0.04 sec, 513 directives.
 Default parameters read. Elapsed time= 0.20 sec

 Checking input...
 Passed
1


                                         ***  PROGRAM SYSTEM MOLPRO  ***
                         Copyright, University College Cardiff Consultants Limited, 2008

                                    Version 2012.1 linked 27 May 2015 14:35:18


 **********************************************************************************************************************************
 LABEL *                                                                                 
 Linux-2.6.32-504.16.2.el6.x86_64/compute-0-7.local(x86_64) 64 bit mpp version           DATE: 19-Jan-17          TIME: 15:20:24  
 **********************************************************************************************************************************

 SHA1:             2c68d29c09da70e1723824271fadde4bcd5f07a0
 **********************************************************************************************************************************

 Variable memory set to  500000000 words,  buffer space   230000 words



 Permanent file  2  hess.wfu assigned.  Implementation=df  



 **********************************************************************************************************************************
 DATASETS  * FILE   NREC   LENGTH (MB)   RECORD NAMES
              2       1        0.03       500   
                                          VAR  

 PROGRAMS   *        TOTAL      FILE
 CPU TIMES  *         0.58      0.00
 REAL TIME  *         0.69 SEC
 DISK USED  *         0.36 MB      
 **********************************************************************************************************************************

 SETTING GEOMTYP        =    XYZ
 ZSYMEL=NOSYM

 SETTING BASIS          =    AUG-CC-PVTZ


 Recomputing integrals since basis changed


 Using spherical harmonics

 Library entry O      S aug-cc-pVTZ          selected for orbital group  1
 Library entry O      P aug-cc-pVTZ          selected for orbital group  1
 Library entry O      D aug-cc-pVTZ          selected for orbital group  1
 Library entry O      F aug-cc-pVTZ          selected for orbital group  1
 Library entry N      S aug-cc-pVTZ          selected for orbital group  2
 Library entry N      P aug-cc-pVTZ          selected for orbital group  2
 Library entry N      D aug-cc-pVTZ          selected for orbital group  2
 Library entry N      F aug-cc-pVTZ          selected for orbital group  2
 Library entry H      S aug-cc-pVTZ          selected for orbital group  3
 Library entry H      P aug-cc-pVTZ          selected for orbital group  3
 Library entry H      D aug-cc-pVTZ          selected for orbital group  3

1PROGRAM * SEWARD (Integral evaluation for generally contracted gaussian basis sets)     Author: Roland Lindh, 1990

 Geometry written to block  1 of record 700


 Point group  C1  



 ATOMIC COORDINATES

 NR  ATOM    CHARGE       X              Y              Z

   1  O       8.00    2.387077294   -0.841839165   -0.309391253
   2  N       7.00    1.117636002    1.025372580    0.330177485
   3  H       1.00   -1.039609777    0.558443741    0.040641773
   4  O       8.00   -3.574498614    0.094117432   -0.267145859
   5  H       1.00   -3.709157096   -1.604935144   -0.912137167

 Bond lengths in Bohr (Angstrom)

 1-2  2.346701742  2-3  2.226109345  4-5  1.822340898
     ( 1.241821078)     ( 1.178006330)     ( 0.964341270)

 Bond angles

  1-2-3  108.77617118

 NUCLEAR CHARGE:                   25
 NUMBER OF PRIMITIVE AOS:         255
 NUMBER OF SYMMETRY AOS:          224
 NUMBER OF CONTRACTIONS:          184   ( 184A   )
 NUMBER OF CORE ORBITALS:           3   (   3A   )
 NUMBER OF VALENCE ORBITALS:       14   (  14A   )


 NUCLEAR REPULSION ENERGY   61.67170135


 Eigenvalues of metric

         1 0.198E-03 0.311E-03 0.495E-03 0.622E-03 0.102E-02 0.153E-02 0.176E-02 0.209E-02


 Contracted 2-electron integrals neglected if value below      1.0D-11
 AO integral compression algorithm  1   Integral accuracy      1.0D-11

     662.700 MB (compressed) written to integral file ( 47.8%)

     Node minimum: 52.167 MB, node maximum: 68.157 MB


 NUMBER OF SORTED TWO-ELECTRON INTEGRALS:   13171158.     BUFFER LENGTH:  32768
 NUMBER OF SEGMENTS:   1  SEGMENT LENGTH:   13171158      RECORD LENGTH: 524288

 Memory used in sort:      13.73 MW

 SORT1 READ   173163987. AND WROTE    12509026. INTEGRALS IN     36 RECORDS. CPU TIME:     4.02 SEC, REAL TIME:     4.44 SEC
 SORT2 READ   137929540. AND WROTE   144848710. INTEGRALS IN   2365 RECORDS. CPU TIME:     0.65 SEC, REAL TIME:     6.66 SEC

 Node minimum:    13160329.  Node maximum:    13175802. integrals

 OPERATOR DM      FOR CENTER  0  COORDINATES:    0.000000    0.000000    0.000000


 **********************************************************************************************************************************
 DATASETS  * FILE   NREC   LENGTH (MB)   RECORD NAMES
              1      18        8.86       500      610      700      900      950      970     1000      129      960     1100   
                                          VAR    BASINP    GEOM    SYMINP    ZMAT    AOBASIS   BASIS     P2S    ABASIS      S 
                                         1400     1410     1200     1210     1080     1600     1650     1700   
                                           T        V       H0       H01     AOSYM     SMH    MOLCAS    OPER   

              2       5        1.28       500      610      700     1000      520   
                                          VAR    BASINP    GEOM     BASIS   MCVARS    

 PROGRAMS   *        TOTAL       INT      FILE
 CPU TIMES  *         6.64      5.94      0.00
 REAL TIME  *        15.00 SEC
 DISK USED  *         2.29 GB      
 GA USED    *         0.00 MB       (max)       0.00 MB       (current)
 **********************************************************************************************************************************

1PROGRAM * RHF-SCF (CLOSED SHELL)       Authors: W. Meyer, H.-J. Werner


 NUMBER OF ELECTRONS:      13+   13-    SPACE SYMMETRY=1    SPIN SYMMETRY: Singlet 
 CONVERGENCE THRESHOLDS:    1.00E-06 (Density)    1.00E-07 (Energy)
 MAX. NUMBER OF ITERATIONS:       60
 INTERPOLATION TYPE:            DIIS
 INTERPOLATION STEPS:              2 (START)      1 (STEP)
 LEVEL SHIFTS:                  0.00 (CLOSED)  0.00 (OPEN) 



 Orbital guess generated from atomic densities. Full valence occupancy:   17

 Molecular orbital dump at record        2100.2

 ITERATION    DDIFF          GRAD             ENERGY        2-EL.EN.            DIPOLE MOMENTS         DIIS   ORB.
    1      0.000D+00      0.000D+00      -205.16090792    293.033391    1.40810   -0.48803    0.00699    0    start
    2      0.000D+00      0.828D-02      -205.21134647    285.307008    1.26004   -0.42358    0.02195    1    diag
    3      0.968D-02      0.725D-02      -205.29082926    288.921122    1.24581   -0.37241    0.04121    2    diag
    4      0.460D-02      0.497D-03      -205.29166140    288.673469    1.24029   -0.41271    0.02571    3    diag
    5      0.516D-03      0.231D-03      -205.29178660    288.709450    1.21948   -0.39204    0.03242    4    diag
    6      0.232D-03      0.104D-03      -205.29181367    288.718008    1.21943   -0.40063    0.02918    5    diag
    7      0.972D-04      0.225D-04      -205.29181660    288.706738    1.21643   -0.40044    0.02909    6    diag
    8      0.397D-04      0.744D-05      -205.29181701    288.709863    1.21520   -0.40094    0.02884    7    diag
    9      0.171D-04      0.245D-05      -205.29181707    288.709305    1.21461   -0.40090    0.02882    8    diag
   10      0.687D-05      0.802D-06      -205.29181708    288.709476    1.21443   -0.40091    0.02881    9    orth
   11      0.216D-05      0.218D-06      -205.29181708    288.709432    1.21440   -0.40090    0.02881    9    diag
   12      0.581D-06      0.775D-07      -205.29181708    288.709439    1.21440   -0.40090    0.02881    0    orth

 Final occupancy:  13

 !RHF STATE 1.1 Energy               -205.291817076654
 Nuclear energy                        61.67170135
 One-electron energy                 -411.31823777
 Two-electron energy                  144.35471934
 Virial quotient                       -1.00175095
 !RHF STATE 1.1 Dipole moment           1.21439549    -0.40089610     0.02880988
 Dipole moment /Debye                   3.08648328    -1.01890952     0.07322263

 ELECTRON ORBITALS
 =================


   Orb  Occ    Energy  Couls-En    Coefficients

                                   1 1s      1 1s      1 1s      1 1s      1 1s      1 2px     1 2py     1 2pz     1 2px     1 2py  
                                   1 2pz     1 2px     1 2py     1 2pz     1 2px     1 2py     1 2pz     1 3d0     1 3d2-    1 3d1+ 
                                   1 3d2+    1 3d1-    1 3d0     1 3d2-    1 3d1+    1 3d2+    1 3d1-    1 3d0     1 3d2-    1 3d1+ 
                                   1 3d2+    1 3d1-    1 4f1+    1 4f1-    1 4f0     1 4f3+    1 4f2-    1 4f3-    1 4f2+    1 4f1+ 
                                   1 4f1-    1 4f0     1 4f3+    1 4f2-    1 4f3-    1 4f2+    2 1s      2 1s      2 1s      2 1s   
                                   2 1s      2 2px     2 2py     2 2pz     2 2px     2 2py     2 2pz     2 2px     2 2py     2 2pz  
                                   2 2px     2 2py     2 2pz     2 3d0     2 3d2-    2 3d1+    2 3d2+    2 3d1-    2 3d0     2 3d2- 
                                   2 3d1+    2 3d2+    2 3d1-    2 3d0     2 3d2-    2 3d1+    2 3d2+    2 3d1-    2 4f1+    2 4f1- 
                                   2 4f0     2 4f3+    2 4f2-    2 4f3-    2 4f2+    2 4f1+    2 4f1-    2 4f0     2 4f3+    2 4f2- 
                                   2 4f3-    2 4f2+    3 1s      3 1s      3 1s      3 1s      3 2px     3 2py     3 2pz     3 2px  
                                   3 2py     3 2pz     3 2px     3 2py     3 2pz     3 3d0     3 3d2-    3 3d1+    3 3d2+    3 3d1- 
                                   3 3d0     3 3d2-    3 3d1+    3 3d2+    3 3d1-    4 1s      4 1s      4 1s      4 1s      4 1s   
                                   4 2px     4 2py     4 2pz     4 2px     4 2py     4 2pz     4 2px     4 2py     4 2pz     4 2px  
                                   4 2py     4 2pz     4 3d0     4 3d2-    4 3d1+    4 3d2+    4 3d1-    4 3d0     4 3d2-    4 3d1+ 
                                   4 3d2+    4 3d1-    4 3d0     4 3d2-    4 3d1+    4 3d2+    4 3d1-    4 4f1+    4 4f1-    4 4f0  
                                   4 4f3+    4 4f2-    4 4f3-    4 4f2+    4 4f1+    4 4f1-    4 4f0     4 4f3+    4 4f2-    4 4f3- 
                                   4 4f2+    5 1s      5 1s      5 1s      5 1s      5 2px     5 2py     5 2pz     5 2px     5 2py  
                                   5 2pz     5 2px     5 2py     5 2pz     5 3d0     5 3d2-    5 3d1+    5 3d2+    5 3d1-    5 3d0  
                                   5 3d2-    5 3d1+    5 3d2+    5 3d1- 

   1.1   2   -20.4135  -57.0760  0.998517 -0.003872  0.001444  0.003071 -0.000705 -0.002763  0.003852  0.001312  0.002716 -0.003715
                                -0.001262  0.000554 -0.000461 -0.000145  0.000050 -0.000035 -0.000011 -0.000162 -0.000031  0.000006
                                 0.000020  0.000114  0.000270  0.000802  0.000288  0.000266 -0.000268 -0.000113 -0.000208 -0.000075
                                -0.000193  0.000157 -0.000031  0.000034  0.000042 -0.000039  0.000037 -0.000007  0.000029 -0.000034
                                 0.000055  0.000059 -0.000145  0.000088 -0.000064  0.000009  0.000574  0.001777 -0.000589 -0.001147
                                 0.000976 -0.000039 -0.000031 -0.000014  0.001132 -0.001415 -0.000476 -0.000976  0.000434  0.000113
                                -0.000040 -0.000214 -0.000083 -0.000091 -0.000200 -0.000070 -0.000081  0.000092 -0.000401 -0.000840
                                -0.000295 -0.000403  0.000426 -0.000019  0.000131  0.000058  0.000143 -0.000039 -0.000034  0.000040
                                 0.000044 -0.000082  0.000060 -0.000029  0.000019  0.000001  0.000085  0.000119 -0.000344  0.000176
                                 0.000079  0.000103  0.000071 -0.000363  0.000155  0.000004  0.000042 -0.000003  0.000001  0.000037
                                -0.000136 -0.000050 -0.000759 -0.000118 -0.000085  0.000028  0.000038  0.000011 -0.000005 -0.000017
                                -0.000185  0.000061  0.000062  0.000439 -0.000047 -0.000014 -0.000040  0.000012 -0.000343 -0.000714
                                 0.000035  0.000015  0.000008 -0.000094 -0.000051 -0.000024 -0.000117 -0.000209 -0.000084 -0.000215
                                -0.000006 -0.000013  0.000000 -0.000004 -0.000001  0.000003 -0.000002  0.000001  0.000010  0.000002
                                -0.000040  0.000018 -0.000066 -0.000060 -0.000015  0.000014  0.000040  0.000012  0.000001  0.000005
                                -0.000000 -0.000008  0.000003  0.000002 -0.000039 -0.000003 -0.000010 -0.000008  0.000034  0.000024
                                 0.000012  0.000009 -0.000284  0.000110 -0.000028 -0.000004 -0.000017 -0.000006 -0.000068 -0.000050
                                -0.000022  0.000056  0.000001  0.000003  0.000003 -0.000006 -0.000002  0.000003 -0.000004 -0.000019
                                 0.000004  0.000005  0.000037 -0.000001

   2.1   2   -20.2592  -55.8935 -0.000013 -0.000035  0.000008 -0.000148 -0.000242 -0.000025  0.000001 -0.000001  0.000063 -0.000012
                                -0.000001 -0.000164 -0.000065 -0.000033  0.000099 -0.000065 -0.000019  0.000000  0.000000 -0.000000
                                -0.000003  0.000001  0.000001  0.000002  0.000001  0.000013 -0.000006 -0.000037 -0.000091 -0.000026
                                 0.000106 -0.000024 -0.000011 -0.000002 -0.000004  0.000010  0.000003 -0.000001 -0.000001  0.000041
                                -0.000000  0.000010 -0.000034 -0.000009  0.000031  0.000013 -0.000163 -0.000529  0.000091 -0.001107
                                -0.000441 -0.000010 -0.000007 -0.000003  0.000246  0.000066  0.000038 -0.000022  0.000151  0.000055
                                 0.000005  0.000098  0.000037  0.000021 -0.000013 -0.000009 -0.000037 -0.000001 -0.000015 -0.000053
                                -0.000016  0.000058 -0.000018 -0.000249 -0.000083  0.000012  0.000374  0.000020 -0.000020 -0.000006
                                -0.000011  0.000015  0.000008  0.000013  0.000003  0.000038  0.000010  0.000017 -0.000061  0.000003
                                -0.000015 -0.000006 -0.000399  0.000253  0.000615  0.000033 -0.000057 -0.000012 -0.000008 -0.000184
                                -0.000039 -0.000024  0.002130 -0.000060  0.000089 -0.000100  0.000044  0.000035  0.000182 -0.000000
                                -0.000273  0.000169  0.000116  0.000529 -0.000012  0.998866 -0.002674  0.001179  0.000734  0.001199
                                 0.000647 -0.003369 -0.001231 -0.000618  0.002901  0.001057  0.000131  0.001079  0.000412  0.000295
                                -0.000066 -0.000009 -0.000038  0.000033  0.000016 -0.000024  0.000042  0.000266 -0.000219 -0.000098
                                 0.000304 -0.000350 -0.000074 -0.000029 -0.000011 -0.000176  0.000131  0.000012 -0.000008 -0.000014
                                -0.000016 -0.000000 -0.000023 -0.000023  0.000009 -0.000006 -0.000026 -0.000087  0.000036 -0.000092
                                -0.000067  0.002248  0.000090 -0.001221  0.000028  0.000013  0.000251  0.000095 -0.000109  0.001052
                                 0.000389 -0.000121  0.000140  0.000046  0.000023 -0.000038 -0.000015  0.000051 -0.000043 -0.000157
                                -0.000036 -0.000016 -0.000446  0.000311

   3.1   2   -15.4509  -45.5748  0.000238  0.001491 -0.000243  0.003159  0.001767 -0.000255  0.000345  0.000117 -0.000526  0.000899
                                 0.000312 -0.000932  0.001093  0.000365 -0.000175  0.000196  0.000065 -0.000043 -0.000095 -0.000034
                                -0.000042  0.000045 -0.000051 -0.000231 -0.000086 -0.000069  0.000053 -0.000091 -0.000143 -0.000045
                                -0.000009  0.000064 -0.000022  0.000029  0.000036 -0.000058  0.000042  0.000003  0.000027 -0.000041
                                 0.000077  0.000101 -0.000132  0.000086 -0.000004  0.000069  0.999025 -0.002282  0.001163 -0.000670
                                -0.000655  0.001017 -0.005734 -0.002115 -0.000681  0.004642  0.001720 -0.002006  0.003958  0.001391
                                -0.000299  0.000237  0.000074 -0.000342 -0.000094  0.000002  0.000025  0.000245  0.000370  0.000838
                                 0.000292  0.000284 -0.000350  0.000306  0.000214  0.000052  0.000072 -0.000251  0.000068  0.000000
                                 0.000001 -0.000078 -0.000010 -0.000062 -0.000046  0.000017 -0.000148 -0.000174  0.000393 -0.000188
                                 0.000160 -0.000028  0.001022 -0.000496 -0.001363  0.000131  0.000038  0.000013  0.000007  0.001032
                                 0.000261  0.000153 -0.002508 -0.000613 -0.000363  0.000084 -0.000096 -0.000052 -0.000152 -0.000004
                                -0.000184 -0.000065  0.000020  0.000568 -0.000113 -0.000054 -0.000211 -0.000014  0.000258 -0.000472
                                -0.000118 -0.000026 -0.000016  0.000115  0.000044  0.000022  0.000244 -0.000605 -0.000215 -0.000147
                                -0.000154 -0.000065  0.000016 -0.000008 -0.000006 -0.000024 -0.000002 -0.000090  0.000076  0.000045
                                 0.000144  0.000011 -0.000256 -0.000003  0.000033  0.000158  0.000126  0.000001 -0.000007 -0.000009
                                 0.000010 -0.000004  0.000011 -0.000000 -0.000095  0.000013  0.000008  0.000128 -0.000005 -0.000001
                                 0.000029  0.000093 -0.000653 -0.000770 -0.000092  0.000001  0.000006  0.000002  0.000096 -0.000118
                                -0.000039 -0.000050 -0.000146 -0.000057  0.000011  0.000029  0.000009 -0.000011 -0.000001 -0.000028
                                 0.000087  0.000037  0.000020  0.000019

   4.1   2    -1.2586  -13.5352 -0.007828  0.743335 -0.006349 -0.044991  0.000587 -0.106375  0.149595  0.050996 -0.001962  0.003653
                                 0.001279  0.023231 -0.034040 -0.011653  0.002472 -0.004330 -0.001508 -0.003386 -0.006223 -0.002106
                                -0.002217  0.003137 -0.006572 -0.015088 -0.005295 -0.005721  0.006502  0.001415  0.003422  0.001226
                                 0.001707 -0.001596  0.000898 -0.001519 -0.001720  0.004238 -0.002596  0.000993 -0.000676 -0.000287
                                -0.000105 -0.000037  0.002145 -0.000925  0.000342  0.000297 -0.009998  0.486854 -0.004270 -0.095323
                                 0.002905  0.109361 -0.190914 -0.066463 -0.013830  0.009138  0.002731 -0.034885  0.064021  0.022379
                                -0.000630  0.001296  0.000457 -0.005860 -0.009305 -0.003078 -0.003637  0.005443 -0.007901 -0.013743
                                -0.004571 -0.004120  0.006910  0.004269  0.001097 -0.000094 -0.001341 -0.002606 -0.000079  0.001650
                                 0.001931 -0.005535  0.002659 -0.001554  0.000331  0.000672 -0.000731 -0.000796 -0.000826  0.000220
                                 0.001595  0.000048  0.086409 -0.022216 -0.048855  0.001633  0.002887 -0.000129  0.000102  0.001359
                                -0.002810 -0.000990 -0.009831  0.000047 -0.000497  0.000066 -0.000939 -0.000360  0.000102 -0.000161
                                 0.002707 -0.005593 -0.002450 -0.000811 -0.002106 -0.000147  0.020912 -0.000444  0.005137  0.006049
                                 0.005412 -0.000826 -0.000026  0.001046  0.000265  0.000155 -0.003314 -0.008914 -0.003534 -0.000048
                                -0.002712 -0.001024 -0.000083  0.000035  0.000025  0.000066  0.000037 -0.000426  0.000174  0.000127
                                 0.000383  0.000168 -0.000416 -0.001134 -0.000509 -0.002712  0.001425 -0.000081 -0.000027 -0.000041
                                 0.000096  0.000016  0.000087  0.000034 -0.000025  0.000176  0.000251  0.000329 -0.000207 -0.000217
                                 0.000088  0.008066 -0.010385 -0.010055 -0.001451 -0.000021  0.000249  0.000092  0.001662 -0.000950
                                -0.000266  0.001412 -0.000916 -0.000265  0.000020  0.000181  0.000066 -0.000005 -0.000000 -0.000643
                                 0.000659  0.000331  0.000304  0.000403

   5.1   2    -1.0028  -11.4715  0.000316 -0.059691  0.000365 -0.002342 -0.002356 -0.004803 -0.005006 -0.002143  0.000627 -0.000622
                                -0.000202  0.001809 -0.000811 -0.000214 -0.000133  0.000154  0.000049  0.000084  0.000098  0.000039
                                 0.000251 -0.000168  0.000326  0.000594  0.000224  0.000748 -0.000537  0.000332  0.000284  0.000096
                                 0.000490 -0.000451 -0.000068  0.000069  0.000087 -0.000207  0.000153  0.000067  0.000095  0.000113
                                 0.000102  0.000162 -0.000363  0.000101  0.000045  0.000094 -0.000377  0.026461 -0.000471  0.001048
                                 0.000410 -0.041550  0.008142  0.000904  0.000861 -0.001933 -0.000685  0.004730 -0.005412 -0.001791
                                 0.000096 -0.000774 -0.000284 -0.000160  0.001133  0.000487  0.000901 -0.000195 -0.001599  0.002519
                                 0.001271  0.003283 -0.000044 -0.001542  0.002097  0.001052  0.002137  0.000385  0.000121 -0.000022
                                -0.000009 -0.000040 -0.000059  0.000013 -0.000025  0.000372  0.000084  0.000134 -0.000144 -0.000231
                                -0.000436 -0.000197  0.135219 -0.031630 -0.035810  0.001824 -0.003381 -0.000828 -0.000488 -0.016048
                                -0.002775 -0.001887 -0.000679  0.002040  0.000730 -0.001211  0.000934  0.000576  0.002112  0.000064
                                -0.003792  0.003484  0.001997  0.006251  0.000397 -0.008816  0.868649 -0.005866 -0.020988  0.024274
                                 0.021563 -0.087422 -0.031686  0.002809 -0.003526 -0.001176 -0.009098  0.021792  0.007703 -0.003105
                                -0.002261 -0.001013 -0.001674  0.000605  0.000308 -0.002230  0.002286 -0.004282  0.001305  0.000757
                                -0.004361  0.005245  0.003140 -0.001218 -0.000733  0.001397 -0.003080 -0.000454  0.000353  0.000693
                                 0.000772 -0.000066  0.001523  0.001328  0.000161  0.000105  0.000127 -0.000068 -0.000127 -0.000441
                                -0.000157  0.409043 -0.113239 -0.159005 -0.003084  0.001289  0.012732  0.004848  0.001736  0.008420
                                 0.003253  0.000415 -0.005032 -0.001867 -0.000762  0.000404  0.000146 -0.001995  0.001477  0.000663
                                 0.000179  0.000079  0.001852 -0.001299

   6.1   2    -0.7319  -11.3189  0.001233  0.541225  0.000441  0.092186  0.046255  0.189118 -0.206476 -0.068168 -0.005748  0.008950
                                 0.003083 -0.027234  0.035090  0.011843 -0.000931  0.001276  0.000433  0.001678  0.004369  0.001519
                                 0.000796 -0.001331  0.001887  0.007414  0.002644  0.000516 -0.001156 -0.002094  0.001193  0.000703
                                 0.000596  0.001425 -0.000090  0.000219  0.000141 -0.001015  0.000525 -0.000779 -0.000308  0.000404
                                -0.000076 -0.000094 -0.000406 -0.000069 -0.000267 -0.000291  0.000690 -0.715033  0.002943 -0.043014
                                -0.049973  0.186892 -0.059576 -0.012736 -0.005094  0.013667  0.004901 -0.018973  0.013715  0.004198
                                 0.004765  0.001846  0.000950  0.001930 -0.003580 -0.001711 -0.003275 -0.000288  0.007471 -0.006129
                                -0.003592 -0.010631 -0.001477  0.004547 -0.000711 -0.000915 -0.003616 -0.001945 -0.000549 -0.000699
                                -0.000984  0.002317 -0.000715  0.000366 -0.000283 -0.001179 -0.000310 -0.000371  0.001230  0.000353
                                 0.001911  0.000950 -0.311976  0.080685  0.132897  0.004545 -0.009337 -0.002532 -0.001446 -0.008239
                                -0.003315 -0.001686  0.022193  0.008616  0.004410  0.001357 -0.000851 -0.000562 -0.002141 -0.000157
                                 0.002680 -0.001724 -0.001156 -0.004895 -0.000018 -0.001012  0.095784 -0.000114  0.013515  0.014560
                                -0.056417 -0.036596 -0.016717  0.000972 -0.000128  0.000003  0.012229  0.009683  0.004279  0.002268
                                 0.000761  0.000406  0.000139 -0.000012 -0.000080 -0.001370  0.000491  0.000100  0.000177 -0.000063
                                -0.002701  0.001114 -0.000068 -0.000371 -0.000051  0.001877 -0.000794  0.000165  0.000110  0.000217
                                 0.000066 -0.000167  0.000093  0.000165  0.000078 -0.000014 -0.000021 -0.000391  0.000162  0.000054
                                -0.000023  0.081447 -0.016629 -0.021527 -0.001010 -0.000369  0.002297  0.000843 -0.002123  0.002207
                                 0.000717  0.000874  0.000827  0.000354 -0.000190 -0.000178 -0.000073 -0.000582  0.000386  0.000222
                                -0.000560 -0.000208  0.000632 -0.000483

   7.1   2    -0.4931  -11.0274 -0.002058 -0.182260 -0.002588 -0.063286 -0.023027  0.143443  0.535353  0.209960  0.001351 -0.004289
                                -0.001551  0.007815 -0.016992 -0.006020  0.002385  0.010609  0.004137 -0.001869 -0.003436 -0.001413
                                -0.006946  0.004251 -0.003899 -0.006553 -0.002820 -0.016906  0.009974 -0.001707 -0.001778 -0.000805
                                -0.007099  0.004310  0.000166 -0.000510 -0.000927  0.003727 -0.002246 -0.002921 -0.001894  0.000837
                                -0.000345 -0.000459  0.001696 -0.001556 -0.001515 -0.001124 -0.000077  0.088921  0.001355 -0.015995
                                -0.010458  0.559757  0.016581  0.035603 -0.015712  0.003003  0.000313 -0.065503  0.015196  0.002309
                                 0.009551  0.002506  0.001446 -0.000557 -0.010932 -0.004156 -0.001255  0.000215 -0.000116 -0.022166
                                -0.008524 -0.002316 -0.000441  0.004618 -0.000362 -0.001346 -0.016470  0.003684 -0.000996  0.001203
                                 0.000955 -0.001268  0.000901 -0.004126 -0.001192  0.000857 -0.000254 -0.000014 -0.001714  0.000509
                                 0.002095  0.000747 -0.393141  0.060089  0.135083  0.005610 -0.007257 -0.001712 -0.001027 -0.006381
                                -0.006142 -0.002656 -0.016849 -0.004025 -0.002394  0.002251 -0.001885 -0.001106 -0.003410 -0.000356
                                 0.003077 -0.008857 -0.003943 -0.005721 -0.000458 -0.001069  0.050071  0.000339  0.006570  0.002863
                                -0.167955 -0.102666 -0.047383  0.001417  0.001782  0.000743  0.014228  0.011489  0.005063 -0.005276
                                -0.001794 -0.000948  0.000228  0.000355 -0.000010 -0.002715  0.001035  0.000482  0.000772  0.000006
                                -0.005293  0.001995 -0.001393  0.000847  0.000681  0.004807 -0.000985  0.000364  0.000192  0.000376
                                 0.000120 -0.000358  0.000025  0.000205  0.000196  0.000046  0.000169  0.000326 -0.000306  0.000283
                                 0.000229  0.150376 -0.021141 -0.051027 -0.002385 -0.001497  0.003784  0.001342 -0.003879  0.005160
                                 0.001731 -0.005202 -0.004495 -0.001966 -0.000505 -0.000438 -0.000165 -0.001213  0.000882  0.000912
                                -0.000333 -0.000237 -0.000299 -0.000588

   8.1   2    -0.4188  -10.8760  0.001269  0.115897  0.003177  0.030398 -0.005080  0.675425 -0.141561 -0.018128 -0.002701 -0.001479
                                -0.000701  0.008272 -0.006105 -0.001877  0.028072 -0.005521 -0.000614  0.003585  0.008064  0.002623
                                -0.001485 -0.001531  0.008043  0.018965  0.006223 -0.003197 -0.003433  0.005670  0.009122  0.002903
                                 0.000743 -0.004037 -0.000738  0.001676  0.001595 -0.003571  0.001887 -0.004068 -0.000885  0.000022
                                 0.000932  0.001059 -0.001794  0.000667 -0.001783 -0.000219  0.001716  0.217145 -0.000117  0.167387
                                 0.076638 -0.037050  0.538162  0.201567  0.004440 -0.020580 -0.007549 -0.003495 -0.073973 -0.028163
                                -0.003702  0.004081  0.001343  0.003345  0.005092  0.002055  0.010798 -0.006962  0.001301  0.005208
                                 0.002917  0.024482 -0.011410 -0.002536  0.006344  0.002686 -0.000055  0.002415  0.000273 -0.000442
                                -0.000750  0.003713 -0.002304 -0.002558 -0.001618  0.001521  0.001167  0.001260 -0.003848  0.000516
                                -0.004202 -0.001631  0.085553 -0.044799 -0.033611 -0.008755 -0.000188  0.003526  0.001323 -0.007558
                                 0.003994  0.001114 -0.011041 -0.013810 -0.005785  0.000189  0.001821  0.000655 -0.000417  0.000166
                                -0.004331  0.006318  0.002843 -0.000565  0.004006  0.000347  0.020692 -0.000036  0.009184 -0.001111
                                 0.044645  0.088478  0.035634 -0.000508 -0.002299 -0.000892 -0.001787  0.003142  0.001116  0.000788
                                 0.005759  0.002216  0.000241 -0.000097 -0.000008  0.001227 -0.000725  0.000252  0.001118  0.000504
                                 0.002374 -0.001149  0.000030  0.005037  0.002016  0.002305 -0.000685 -0.000134 -0.000102 -0.000207
                                -0.000076  0.000146 -0.000155 -0.000194 -0.000042 -0.000420 -0.000476  0.000206  0.000070  0.001109
                                 0.000225 -0.096991  0.017261  0.019131  0.003702  0.000385 -0.002072 -0.000756  0.000385 -0.003230
                                -0.001195 -0.002886 -0.002094 -0.000947  0.000221  0.000113  0.000053  0.000774 -0.000497  0.000904
                                 0.000257 -0.000031 -0.000719 -0.000358

   9.1   2    -0.3505  -10.7704  0.000000  0.000012  0.000001  0.000003  0.000012 -0.034082 -0.246028  0.649885 -0.000402 -0.002904
                                 0.007679 -0.001426 -0.010292  0.027195 -0.001809 -0.013026  0.034429  0.004080  0.001483 -0.004994
                                 0.002867  0.006010  0.012491  0.004429 -0.014998  0.008746  0.018363  0.006443  0.002136 -0.007335
                                 0.004467  0.009414 -0.002414  0.002293 -0.001230 -0.001834 -0.003673  0.001040 -0.001080 -0.001903
                                 0.000901  0.000009 -0.001283 -0.002570  0.000947 -0.001352  0.000002  0.000172  0.000000  0.000079
                                 0.000036 -0.022631 -0.162127  0.429289 -0.000096 -0.000736  0.001922  0.000657  0.004576 -0.012188
                                -0.000650 -0.004609  0.012185 -0.006794 -0.001637  0.006100 -0.004541 -0.009711 -0.017305 -0.004953
                                 0.017640 -0.011789 -0.025020 -0.002603 -0.001972  0.005975 -0.002122 -0.004217 -0.002653  0.002975
                                -0.001901 -0.002109 -0.004224  0.001044 -0.000858 -0.002590  0.001839  0.000771 -0.001463 -0.003167
                                 0.002100 -0.003464 -0.000073  0.000030  0.000019  0.000021 -0.000148 -0.001135  0.003002 -0.000520
                                -0.003816  0.010087  0.000090  0.000666 -0.001720  0.000378 -0.000666  0.001710  0.000037  0.000257
                                 0.002706 -0.003522  0.008843  0.000624  0.002304 -0.000004 -0.000346 -0.000000 -0.000189 -0.000136
                                -0.001951 -0.014122  0.035078  0.000008  0.000080 -0.000154 -0.000430 -0.002934  0.007847 -0.000111
                                -0.000698  0.001729 -0.000091 -0.000030  0.000105 -0.000070 -0.000123 -0.000040 -0.000402  0.001079
                                -0.000153 -0.000188 -0.000088 -0.001216  0.003278 -0.000414 -0.000572  0.000046  0.000088 -0.000027
                                 0.000037  0.000057  0.000020 -0.000030  0.000028  0.000223 -0.000482 -0.000090 -0.000139 -0.000192
                                 0.000467  0.000831 -0.000106 -0.000153 -0.000011 -0.000026 -0.000175  0.000511 -0.000021 -0.000142
                                 0.000481 -0.000015 -0.000162  0.000439  0.000106  0.000004 -0.000038  0.000060  0.000152  0.000067
                                -0.000167  0.000440 -0.000006  0.000035

  10.1   2    -0.3419   -9.7472 -0.000114 -0.010606 -0.000962 -0.005657  0.002003  0.036114  0.208830  0.081859 -0.000392 -0.000392
                                -0.000158  0.006447  0.006735  0.002934  0.002837  0.009702  0.003873 -0.000933 -0.001764 -0.000641
                                -0.001429  0.001235 -0.001974 -0.003830 -0.001411 -0.003272  0.002728 -0.000600 -0.000965 -0.000423
                                -0.002470  0.001503  0.000274 -0.000347 -0.000438  0.001417 -0.000933 -0.000345 -0.000453  0.000293
                                -0.000039  0.000023  0.000669 -0.000583 -0.000147 -0.000082 -0.001658 -0.151310 -0.000562 -0.067901
                                -0.053630  0.110333 -0.164324 -0.055715 -0.004492  0.007182  0.002481 -0.027676  0.019501  0.005895
                                 0.007643 -0.002825 -0.000648 -0.001956 -0.004140 -0.001358  0.000018  0.001180 -0.004391 -0.008329
                                -0.002541  0.003063  0.001380 -0.000675  0.000570  0.000430  0.002961 -0.000749 -0.000152  0.000354
                                 0.000234 -0.001607  0.000833 -0.001152 -0.000441  0.000285 -0.000079 -0.000118 -0.000388  0.000003
                                -0.000228 -0.000271  0.080414 -0.024757 -0.022463 -0.001613 -0.007169 -0.000010 -0.000379 -0.014901
                                 0.001041 -0.000389  0.014144  0.005689  0.002880 -0.000016 -0.002125 -0.000765  0.000799 -0.000486
                                -0.002236 -0.009752 -0.003112  0.007629 -0.002307  0.002892  0.249040  0.000116  0.147722  0.101703
                                 0.125206  0.627059  0.242068  0.000392 -0.014207 -0.005313  0.008183 -0.036895 -0.013416  0.014523
                                 0.026968  0.010896  0.002509 -0.000679 -0.000213  0.007022 -0.005015  0.002432  0.002932  0.001518
                                 0.015144 -0.008246 -0.001887  0.000697  0.000654  0.004305 -0.000400 -0.000346 -0.000776 -0.001401
                                -0.000414  0.000554 -0.000994 -0.001388 -0.001149 -0.000871 -0.001419  0.001619  0.000116  0.000209
                                -0.000573 -0.634822  0.058552  0.129386  0.000337  0.000189 -0.011945 -0.004474  0.000227 -0.027419
                                -0.010284  0.003648  0.007464  0.002986  0.002036  0.000026  0.000001  0.004723 -0.003604 -0.000077
                                 0.000372  0.000240  0.002102 -0.000833

  11.1   2    -0.2500  -10.0035  0.000102  0.001504 -0.000517  0.011062  0.028755  0.330833  0.316631  0.136956 -0.001955 -0.000403
                                -0.000256  0.031542  0.028381  0.012375  0.038615  0.036692  0.015884 -0.000628 -0.000835 -0.000294
                                -0.000994  0.000860 -0.001600 -0.001239 -0.000369 -0.001573  0.001828 -0.000142  0.001414  0.000423
                                -0.003092  0.001568  0.000540 -0.000042 -0.000043  0.000917 -0.000946 -0.001055 -0.000597  0.000494
                                 0.000377  0.000525 -0.000196 -0.000383 -0.000992 -0.000220 -0.002616 -0.195314 -0.001789 -0.096369
                                -0.099649 -0.065070 -0.241298 -0.094712 -0.002274  0.004975  0.001764 -0.051221 -0.003173 -0.003861
                                -0.021475 -0.014320 -0.006540 -0.003464 -0.002701 -0.000436  0.005159  0.000198 -0.008789 -0.003204
                                 0.000452  0.017007 -0.000968 -0.002123  0.011656  0.004980  0.007584 -0.000897 -0.000341  0.000383
                                 0.000018 -0.001215  0.000644 -0.002925 -0.001384  0.000988 -0.000187 -0.000577 -0.002020  0.000266
                                -0.002611 -0.001937  0.299594 -0.055795 -0.024937  0.008478 -0.004084 -0.003058 -0.001366 -0.023757
                                -0.013109 -0.006186  0.004800  0.006866  0.002834 -0.000517  0.000622  0.000334  0.001021 -0.000012
                                -0.009699  0.003352  0.002854  0.012997  0.001935 -0.000811 -0.129743 -0.001468 -0.095643 -0.073410
                                 0.623936 -0.225492 -0.051813 -0.001374  0.006052  0.002199  0.020384  0.008913  0.004416  0.051887
                                -0.017777 -0.003944 -0.001839 -0.002157 -0.000626 -0.000161  0.001316 -0.004101 -0.007065 -0.002068
                                 0.003755  0.000982  0.000422 -0.003064 -0.000955  0.005750 -0.003050 -0.000969  0.000122  0.000084
                                -0.000604  0.001055  0.001023  0.000704 -0.000863  0.000074 -0.000070  0.000842  0.000114 -0.000364
                                -0.000013  0.139310  0.010763  0.005124  0.001007  0.008061  0.001812  0.001105  0.022025  0.010399
                                 0.005063  0.022031  0.001349  0.001659 -0.000468  0.003114  0.001191 -0.000810  0.000926  0.000085
                                 0.004961  0.001847 -0.000456  0.000478

  12.1   2    -0.1971   -9.5672  0.000000  0.000028 -0.000000  0.000002  0.000008  0.002932  0.021734 -0.057432  0.000022  0.000158
                                -0.000419  0.000210  0.001544 -0.004087  0.000339  0.002548 -0.006742 -0.000278 -0.000072  0.000260
                                -0.000186 -0.000398 -0.000813 -0.000106  0.000478 -0.000517 -0.001127  0.000140 -0.000253  0.000639
                                 0.000011  0.000094  0.000156 -0.000172  0.000067  0.000113  0.000232 -0.000087  0.000109  0.000149
                                 0.000207 -0.000206  0.000079  0.000139 -0.000053  0.000129 -0.000001 -0.000049 -0.000001 -0.000023
                                -0.000036  0.000752  0.005492 -0.014760 -0.000030 -0.000205  0.000557 -0.000156 -0.001094  0.002955
                                 0.000121  0.000804 -0.002140  0.000369  0.000385 -0.001136  0.000330  0.000640  0.000809  0.001540
                                -0.004379  0.000923  0.001664 -0.000269  0.001586 -0.004248  0.000298  0.000237  0.000406 -0.000181
                                -0.000175  0.000225  0.000483 -0.000303  0.000516  0.000439 -0.000289  0.000118  0.000320  0.000637
                                -0.000187  0.000224 -0.000015  0.000002  0.000004  0.000003 -0.000190 -0.001359  0.003619 -0.000508
                                -0.003632  0.009676 -0.000196 -0.001398  0.003690 -0.000562  0.000987 -0.002542 -0.000055 -0.000383
                                -0.000856  0.001752 -0.004575 -0.000006 -0.000488 -0.000000 -0.000001 -0.000000  0.000011  0.000030
                                -0.042657 -0.304070  0.809909  0.000058  0.000417 -0.001112 -0.003338 -0.023820  0.063372 -0.005129
                                -0.036640  0.097579 -0.002195 -0.000060  0.000714 -0.001335 -0.002990 -0.004882 -0.001387  0.004989
                                -0.003329 -0.007127 -0.000923 -0.002365  0.006634 -0.001232 -0.002142  0.000396  0.002267 -0.000943
                                 0.000308  0.000334  0.000546 -0.000766  0.000775  0.001621 -0.001846  0.000255  0.000461 -0.000463
                                 0.001204 -0.000000 -0.000023 -0.000016  0.000003 -0.000532 -0.003796  0.010108 -0.001393 -0.009922
                                 0.026413 -0.001289 -0.009163  0.024410  0.002531 -0.000337  0.000283  0.001423  0.003292  0.002892
                                -0.000095 -0.000461  0.001708  0.003873

  13.1   2    -0.1361  -10.1018 -0.000293 -0.009691 -0.000149 -0.013546 -0.031977 -0.434494 -0.255412 -0.119400  0.001773  0.000373
                                 0.000234 -0.061732 -0.042737 -0.019399 -0.093540 -0.058677 -0.027099  0.000416  0.001237  0.000328
                                -0.002257  0.000761  0.001175  0.003573  0.000943 -0.006667  0.002283  0.000158  0.000431  0.000203
                                 0.001293 -0.000661 -0.000873 -0.000147 -0.000439  0.000173  0.000540 -0.000278 -0.000257 -0.000147
                                -0.000263 -0.000409 -0.000201  0.000283  0.000259 -0.000137  0.000265  0.031869  0.001096  0.063343
                                 0.062351  0.525464  0.348753  0.159426 -0.009931 -0.004741 -0.002313  0.060604  0.029893  0.014480
                                 0.094816  0.054436  0.025562  0.003223 -0.000796 -0.000936 -0.006615  0.000385  0.005798 -0.000921
                                -0.001676 -0.016165  0.002609  0.002397 -0.002003 -0.001458 -0.010019  0.002436  0.000915  0.000289
                                 0.000814  0.000742 -0.001054  0.000929  0.000864  0.000811  0.000248  0.001222  0.001699 -0.001302
                                 0.003935  0.002654 -0.203717  0.011856  0.017554 -0.001756 -0.015505 -0.002921 -0.001913 -0.045725
                                -0.007420 -0.005192 -0.024355 -0.000965 -0.001636  0.001429 -0.000415 -0.000426 -0.002652  0.000043
                                 0.001248  0.001612  0.000480 -0.000050 -0.000824 -0.000060  0.052272 -0.000433  0.017692  0.016794
                                 0.527386  0.004570  0.029517 -0.000032 -0.000036 -0.000015  0.064291  0.011192  0.007584  0.081458
                                 0.004729  0.006064  0.000080 -0.002507 -0.000948  0.000186 -0.000317 -0.001251 -0.005846 -0.001902
                                 0.003943 -0.001178 -0.003027 -0.002926 -0.000272  0.011569 -0.002942 -0.000516 -0.000079 -0.000204
                                -0.000872  0.000888  0.000557  0.000183 -0.001492 -0.000200 -0.000668  0.000443  0.000816 -0.000594
                                -0.000431 -0.046039  0.018064  0.025663  0.002059  0.006743 -0.000786  0.000060  0.016723  0.000575
                                 0.001100  0.017814  0.006444  0.003370  0.000202  0.002514  0.000948  0.000441 -0.000169  0.000527
                                 0.002767  0.001032  0.000964 -0.000623

 HOMO     13.1    -0.136119 =      -3.7040eV
 LUMO     14.1     0.159275 =       4.3341eV
 LUMO-HOMO         0.295395 =       8.0381eV


 **********************************************************************************************************************************
 DATASETS  * FILE   NREC   LENGTH (MB)   RECORD NAMES
              1      18        8.86       500      610      700      900      950      970     1000      129      960     1100   
                                          VAR    BASINP    GEOM    SYMINP    ZMAT    AOBASIS   BASIS     P2S    ABASIS      S 
                                         1400     1410     1200     1210     1080     1600     1650     1700   
                                           T        V       H0       H01     AOSYM     SMH    MOLCAS    OPER   

              2       6        2.02       500      610      700     1000      520     2100   
                                          VAR    BASINP    GEOM     BASIS   MCVARS     RHF  

 PROGRAMS   *        TOTAL       RHF       INT      FILE
 CPU TIMES  *         9.29      2.65      5.94      0.00
 REAL TIME  *        18.06 SEC
 DISK USED  *         2.44 GB      
 SF USED    *         0.14 MB      
 GA USED    *         0.00 MB       (max)       0.00 MB       (current)
 **********************************************************************************************************************************


1PROGRAM * CCSD (Unrestricted open-shell coupled cluster)     Authors: C. Hampel, H.-J. Werner, 1991, M. Deegan, P.J. Knowles, 1992


 Convergence thresholds:  THRVAR = 1.00D-12  THRDEN = 1.00D-08

 CCSD(T)     terms to be evaluated (factor= 1.000)


 Number of core orbitals:           3 (   3 )
 Number of closed-shell orbitals:  10 (  10 )
 Number of external orbitals:     171 ( 171 )

 Memory could be reduced to 97.69 Mwords without degradation in triples

 Number of N-1 electron functions:              20
 Number of N-2 electron functions:             190
 Number of singly external CSFs:              3420
 Number of doubly external CSFs:           4249350
 Total number of CSFs:                     4252770

 Molecular orbitals read from record     2100.2  Type=RHF/CANONICAL (state 1.1)

 Integral transformation finished. Total CPU:  11.70 sec, npass=  1  Memory used:  38.32 MW

 Starting RMP2 calculation

 ITER.      SQ.NORM     CORR.ENERGY   TOTAL ENERGY   ENERGY CHANGE        DEN1      VAR(S)    VAR(P)  DIIS     TIME
   1      1.20532013    -0.73677993  -206.02859701    -0.73677993    -0.00244607  0.27D-12  0.10D-02  1  1    13.40
   2      1.20771723    -0.73940145  -206.03121853    -0.00262152    -0.00000373  0.54D-14  0.22D-05  2  2    14.86
   3      1.20779938    -0.73945053  -206.03126761    -0.00004907    -0.00000001  0.12D-15  0.61D-08  3  3    16.46
   4      1.20780100    -0.73945091  -206.03126799    -0.00000038    -0.00000000  0.38D-17  0.24D-10  4  4    18.20
   5      1.20780101    -0.73945092  -206.03126799    -0.00000000    -0.00000000  0.15D-18  0.12D-12  5  5    20.05

 Norm of t1 vector:      0.00000346      S-energy:    -0.00000000      T1 diagnostic:  0.00000055
 Norm of t2 vector:      0.45585196      P-energy:    -0.73945092
                                         Alpha-Beta:  -0.55102015
                                         Alpha-Alpha: -0.09421538
                                         Beta-Beta:   -0.09421538

 Spin contamination <S**2-Sz**2-Sz>     0.00000000
  Reference energy                   -205.291817076654
  RHF-RMP2 correlation energy          -0.739450916870
 !RHF-RMP2 energy                    -206.031267993524

 Starting UCCSD calculation

 ITER.      SQ.NORM     CORR.ENERGY   TOTAL ENERGY   ENERGY CHANGE        DEN1      VAR(S)    VAR(P)  DIIS     TIME
   1      1.19303653    -0.71386741  -206.00568448    -0.71386741    -0.02191135  0.56D-02  0.36D-02  1  1    36.91
   2      1.21211083    -0.73292468  -206.02474176    -0.01905727    -0.00236142  0.27D-03  0.85D-03  2  2    53.02
   3      1.22233018    -0.73653509  -206.02835217    -0.00361041    -0.00035223  0.21D-03  0.80D-04  3  3    69.72
   4      1.22834184    -0.73829168  -206.03010875    -0.00175658    -0.00006806  0.27D-04  0.22D-04  4  4    86.56
   5      1.23103171    -0.73865445  -206.03047152    -0.00036277    -0.00001393  0.85D-05  0.43D-05  5  5   103.08
   6      1.23229682    -0.73879417  -206.03061125    -0.00013973    -0.00000276  0.11D-05  0.12D-05  6  6   119.71
   7      1.23268787    -0.73882948  -206.03064656    -0.00003531    -0.00000087  0.46D-06  0.38D-06  6  2   137.56
   8      1.23282221    -0.73883400  -206.03065107    -0.00000451    -0.00000028  0.15D-06  0.13D-06  6  4   155.55
   9      1.23290514    -0.73884364  -206.03066071    -0.00000964    -0.00000007  0.36D-07  0.26D-07  6  1   173.34
  10      1.23293410    -0.73884412  -206.03066120    -0.00000049    -0.00000001  0.69D-08  0.34D-08  6  3   191.01
  11      1.23294311    -0.73884519  -206.03066226    -0.00000106    -0.00000000  0.99D-09  0.58D-09  6  5   209.05
  12      1.23294353    -0.73884487  -206.03066195     0.00000031    -0.00000000  0.35D-09  0.12D-09  6  6   227.24
  13      1.23294186    -0.73884401  -206.03066109     0.00000086    -0.00000000  0.78D-10  0.32D-10  6  4   245.03
  14      1.23294111    -0.73884389  -206.03066096     0.00000013    -0.00000000  0.37D-10  0.10D-10  6  2   261.65
  15      1.23294007    -0.73884369  -206.03066077     0.00000019    -0.00000000  0.13D-10  0.33D-11  6  1   278.49
  16      1.23293976    -0.73884362  -206.03066069     0.00000008    -0.00000000  0.59D-11  0.15D-11  6  2   295.24
  17      1.23293932    -0.73884354  -206.03066062     0.00000007    -0.00000000  0.12D-11  0.27D-12  6  6   312.33
  18      1.23293942    -0.73884357  -206.03066065    -0.00000003    -0.00000000  0.49D-12  0.72D-13  6  3   328.85
  19      1.23293945    -0.73884357  -206.03066064     0.00000001    -0.00000000  0.33D-12  0.33D-13  6  5   345.24

 Norm of t1 vector:      0.13008059      S-energy:     0.00000012      T1 diagnostic:  0.02056755
                                                                       D1 diagnostic:  0.06240938
 Norm of t2 vector:      0.46477789      P-energy:    -0.73884369
                                         Alpha-Beta:  -0.57697203
                                         Alpha-Alpha: -0.08093583
                                         Beta-Beta:   -0.08093583

 Doubles amplitudes (print threshold =  0.500E-01):

         I         J         SYM. A    SYM. B    A         B      T(IJ, AB) [Alpha-Beta]

         6         6         1         1         6         6     -0.05281945

 Spin contamination <S**2-Sz**2-Sz>     0.00000000

 Memory could be reduced to 103.45 Mwords without degradation in triples


 RESULTS
 =======

  Reference energy                   -205.291817076654
  UCCSD singles energy                  0.000000122895
  UCCSD pair energy                    -0.738843690026
  UCCSD correlation energy             -0.738843567131
  Triples (T) contribution             -0.034904426520
  Total correlation energy             -0.773747993651

  RHF-UCCSD energy                   -206.030660643785
  RHF-UCCSD[T] energy                -206.067972638046
  RHF-UCCSD-T energy                 -206.064826195485
 !RHF-UCCSD(T) energy                -206.065565070305

 Program statistics:

 Available memory in ccsd:               499999000
 Min. memory needed in ccsd:              12416948
 Max. memory used in ccsd:                17668248
 Max. memory used in cckext:              13745625 (19 integral passes)
 Max. memory used in cckint:              38317134 ( 1 integral passes)



 **********************************************************************************************************************************
 DATASETS  * FILE   NREC   LENGTH (MB)   RECORD NAMES
              1      18        8.86       500      610      700      900      950      970     1000      129      960     1100   
                                          VAR    BASINP    GEOM    SYMINP    ZMAT    AOBASIS   BASIS     P2S    ABASIS      S 
                                         1400     1410     1200     1210     1080     1600     1650     1700   
                                           T        V       H0       H01     AOSYM     SMH    MOLCAS    OPER   

              2       6        2.02       500      610      700     1000      520     2100   
                                          VAR    BASINP    GEOM     BASIS   MCVARS     RHF  

 PROGRAMS   *        TOTAL  UCCSD(T)       RHF       INT      FILE
 CPU TIMES  *       506.70    497.35      2.65      5.94      0.00
 REAL TIME  *       572.81 SEC
 DISK USED  *         8.32 GB      
 SF USED    *         1.66 GB      
 GA USED    *         0.00 MB       (max)       0.00 MB       (current)
 **********************************************************************************************************************************


 PROGRAM * HESSIAN

 Computing numerical hessian using default procedure for command UCCSD(T)

 Using no symmetry in wavefunction calculations

 Running default procedure: RHF-SCF000  UCCSD(T)


 *** Long output written to logfile /home/alex/hno/molpro/cc/mecp/hess_s_CCmecp.log ***


 Numerically approximating hessian using central energy differences

 Task list generated. Total number of displacements:    240

   24 tasks completed, CPU=3h 42m 15s Elapsed=3h 56m 11s
   48 tasks completed, CPU=7h 41m 23s Elapsed=8h 8m 25s
   72 tasks completed, CPU=11h 42m 36s Elapsed=12h 22m 53s
   96 tasks completed, CPU=15h 47m 12s Elapsed=16h 40m 55s
  120 tasks completed, CPU=19h 41m 15s Elapsed=20h 48m 40s
  144 tasks completed, CPU=23h 41m 18s Elapsed=1d 1h 1m 36s
  168 tasks completed, CPU=1d 3h 39m 43s Elapsed=1d 5h 12m 22s
  192 tasks completed, CPU=1d 7h 29m 37s Elapsed=1d 9h 14m 58s
  216 tasks completed, CPU=1d 11h 24m 4s Elapsed=1d 13h 22m 35s
  240 tasks completed, CPU=1d 15h 21m 12s Elapsed=1d 17h 32m 58s

 Numerical UCCSD(T) hessian completed. CPU-time:141672.56 sec, Elapsed:149578.85 sec

 UCCSD(T) hessian saved to record  5300.2

 FREQUENCIES * CALCULATION OF HARMONIC VIBRATIONAL SPECTRA FOR UCCSD(T)


 Permanent Dipole Moment [debye]
   1-  3    0.000000    0.000000    0.000000

 Dipole Moment Norm    0.0000000 [debye]

 Dipole Moment Derivatives [debye/ang]
                   1             2             3             4             5             6             7             8
         1     0.0000000     0.0000000     0.0000000     0.0000000     0.0000000     0.0000000     0.0000000     0.0000000
         2     0.0000000     0.0000000     0.0000000     0.0000000     0.0000000     0.0000000     0.0000000     0.0000000
         3     0.0000000     0.0000000     0.0000000     0.0000000     0.0000000     0.0000000     0.0000000     0.0000000
                   9            10            11            12            13            14            15
         1     0.0000000     0.0000000     0.0000000     0.0000000     0.0000000     0.0000000     0.0000000
         2     0.0000000     0.0000000     0.0000000     0.0000000     0.0000000     0.0000000     0.0000000
         3     0.0000000     0.0000000     0.0000000     0.0000000     0.0000000     0.0000000     0.0000000

 Projecting out rotations and translations

 Force Constants (Second Derivatives of the Energy) in [a.u.]
                             GX1         GY1         GZ1         GX2         GY2     
           GX1           0.2302427
           GY1          -0.2686103   0.3975243
           GZ1          -0.0894331   0.1360850   0.0473810
           GX2          -0.2187570   0.2701553   0.0907417   0.3567468
           GY2           0.2217877  -0.3958264  -0.1378540  -0.2041328   0.4530279
           GZ2           0.0723120  -0.1352911  -0.0479893  -0.0589814   0.1575658
           GX3          -0.0026961  -0.0166209  -0.0065274  -0.0670544   0.0168861
           GY3           0.0574557  -0.0082947  -0.0000986  -0.0548154  -0.0618686
           GZ3           0.0215650  -0.0040380  -0.0007067  -0.0234901  -0.0173780
           GX4          -0.0055215   0.0128156   0.0045899  -0.0662330  -0.0351713
           GY4          -0.0097088   0.0055456   0.0011833  -0.0108951   0.0046488
           GZ4          -0.0038274   0.0025227   0.0017863  -0.0078300  -0.0019916
           GX5          -0.0032682   0.0022604   0.0006290  -0.0047023   0.0006303
           GY5          -0.0009243   0.0010511   0.0006842  -0.0003120   0.0000183
           GZ5          -0.0006164   0.0007214  -0.0004714  -0.0004401  -0.0003423
                             GZ2         GX3         GY3         GZ3         GX4     
           GZ2           0.0647528
           GX3           0.0037991   0.0480018
           GY3          -0.0211932  -0.0126103   0.0988684
           GZ3          -0.0215968  -0.0037011   0.0272579   0.0363581
           GX4          -0.0171546   0.0130416   0.0229701   0.0099950   0.0738872
           GY4          -0.0006036   0.0078426  -0.0247378  -0.0046399   0.0419089
           GZ4           0.0039087   0.0041191  -0.0039816  -0.0131576   0.0193894
           GX5           0.0000250   0.0087072  -0.0130002  -0.0043687  -0.0151743
           GY5          -0.0004780   0.0045024  -0.0039674  -0.0012020  -0.0425233
           GZ5           0.0009245   0.0023104  -0.0019845  -0.0008969  -0.0168196
                             GY4         GZ4         GX5         GY5         GZ5     
           GY4           0.4596680
           GZ4           0.1723034   0.0725155
           GX5          -0.0291476  -0.0118510   0.0144377
           GY5          -0.4451247  -0.1688528   0.0392571   0.4480226
           GZ5          -0.1682433  -0.0650529   0.0155656   0.1698486   0.0654967


 Atomic Masses
   1-  5   15.999400   14.006700    1.007940   15.999400    1.007940

 Mass weighted Second Derivative Matrix
                             GX1         GY1         GZ1         GX2         GY2     
           GX1           0.0143907
           GY1          -0.0167888   0.0248462
           GZ1          -0.0055898   0.0085056   0.0029614
           GX2          -0.0146131   0.0180465   0.0060616   0.0254697
           GY2           0.0148155  -0.0264414  -0.0092087  -0.0145739   0.0323437
           GZ2           0.0048305  -0.0090375  -0.0032057  -0.0042109   0.0112493
           GX3          -0.0006714  -0.0041389  -0.0016254  -0.0178461   0.0044941
           GY3           0.0143075  -0.0020655  -0.0000245  -0.0145887  -0.0164659
           GZ3           0.0053701  -0.0010055  -0.0001760  -0.0062517  -0.0046250
           GX4          -0.0003451   0.0008010   0.0002869  -0.0044244  -0.0023495
           GY4          -0.0006068   0.0003466   0.0000740  -0.0007278   0.0003105
           GZ4          -0.0002392   0.0001577   0.0001116  -0.0005231  -0.0001330
           GX5          -0.0008138   0.0005629   0.0001566  -0.0012515   0.0001677
           GY5          -0.0002302   0.0002618   0.0001704  -0.0000830   0.0000049
           GZ5          -0.0001535   0.0001797  -0.0001174  -0.0001171  -0.0000911
                             GZ2         GX3         GY3         GZ3         GX4     
           GZ2           0.0046230
           GX3           0.0010111   0.0476236
           GY3          -0.0056404  -0.0125109   0.0980896
           GZ3          -0.0057478  -0.0036719   0.0270432   0.0360717
           GX4          -0.0011459   0.0032476   0.0057200   0.0024889   0.0046181
           GY4          -0.0000403   0.0019530  -0.0061601  -0.0011554   0.0026194
           GZ4           0.0002611   0.0010257  -0.0009915  -0.0032765   0.0012119
           GX5           0.0000066   0.0086386  -0.0128977  -0.0043343  -0.0037787
           GY5          -0.0001272   0.0044670  -0.0039361  -0.0011926  -0.0105891
           GZ5           0.0002461   0.0022922  -0.0019688  -0.0008899  -0.0041884
                             GY4         GZ4         GX5         GY5         GZ5     
           GY4           0.0287303
           GZ4           0.0107694   0.0045324
           GX5          -0.0072583  -0.0029511   0.0143240
           GY5          -0.1108441  -0.0420474   0.0389479   0.4444934
           GZ5          -0.0418956  -0.0161993   0.0154430   0.1685106   0.0649807


 Mass Weighted 2nd Derivative Matrix Eigenvalues
   1- 10   -0.000000   -0.000000   -0.000000    0.000000    0.000000    0.000000    0.001002    0.001163    0.005920    0.009967
  11- 15    0.026746    0.049785    0.088862    0.120684    0.543970

 Mass Weighted 2nd Derivative Matrix Eigenvectors
                   1             2             3             4             5             6             7             8
         1     0.5912074     0.0506162     0.1220078     0.0033470    -0.0390047     0.0265694     0.5394468    -0.3478215
         2     0.2096315     0.3792435    -0.0900714     0.0410106     0.6798722    -0.0625022     0.1573492    -0.0262249
         3    -0.0410512    -0.1606623     0.1547977    -0.1709356     0.0564828     0.9180726    -0.0188399    -0.1882570
         4     0.3898329     0.1824351     0.1382791    -0.0110368    -0.3668736     0.0132293    -0.0846502     0.0287621
         5     0.1076611     0.3965042    -0.3090832    -0.0231639     0.3166436     0.2509751    -0.2892298     0.0827301
         6    -0.1042795    -0.0038549     0.8490374    -0.0084061     0.3298254    -0.0675361     0.0333217     0.2553634
         7     0.1158176     0.0376639     0.0378736    -0.0078414    -0.0741425     0.0061001     0.0579053    -0.0491149
         8    -0.0224165     0.1383331    -0.0288339    -0.0464048     0.0093128     0.0379682    -0.1316625     0.0760815
         9    -0.0290129     0.0314205     0.1347389     0.0989251     0.0295879     0.0102179    -0.0356973     0.0343573
        10     0.5061505     0.1040337     0.1554461    -0.0541396    -0.1979349     0.0354936    -0.3802588     0.2864235
        11    -0.3284338     0.6995836     0.1236021    -0.3719014    -0.3235325     0.0298317     0.1774083     0.0045412
        12    -0.1231330     0.2802909     0.1395573     0.8648523    -0.1407230     0.1317545    -0.1216318    -0.2365925
        13     0.1670496    -0.0079363     0.0342940    -0.0129659     0.0319903     0.0126090    -0.3765753     0.1865145
        14    -0.0906300     0.1834979     0.1057095    -0.1013833    -0.0540369    -0.0719707    -0.1238722    -0.2980903
        15    -0.0176718     0.0566347    -0.1607255     0.2381172    -0.1239389     0.2416085     0.4711404     0.7063626
                   9            10            11            12            13            14            15
         1    -0.1177245     0.2214874    -0.0024851    -0.1616939     0.3350280     0.1322640    -0.0006091
         2    -0.0969812    -0.0166961     0.0000157     0.2265995    -0.4996402    -0.0135273     0.0004214
         3    -0.0465712     0.0032267    -0.0028174     0.0766217    -0.1715133     0.0017246     0.0001523
         4     0.6132291    -0.0269163     0.0093387    -0.2128519    -0.4641697    -0.1229621     0.0001484
         5     0.2655132    -0.1274335     0.0510385    -0.3194894     0.5159859    -0.1540073     0.0003346
         6     0.1381068    -0.0456602    -0.1292547    -0.1309554     0.1710029    -0.0652123     0.0001086
         7     0.3581775    -0.1380569    -0.0467625     0.8373839     0.3081576    -0.1629674     0.0101655
         8     0.1979817     0.0673755    -0.3494572     0.0793643     0.0308394     0.8829110    -0.0093201
         9     0.0904498     0.0123656     0.9185137     0.0730941     0.0277253     0.3296568    -0.0030390
        10    -0.5287007    -0.3778004     0.0035503     0.1127142     0.0151346     0.0558505    -0.0223151
        11    -0.1855965     0.1341308     0.0392268     0.0540419     0.0097101    -0.0659309    -0.2252349
        12    -0.1033844     0.0280343    -0.1044293     0.0254141     0.0042555    -0.0225883    -0.0856911
        13    -0.0687142     0.8611676     0.0077059     0.1512239     0.0270694    -0.1281306     0.0806143
        14    -0.0619283    -0.0602075     0.0028494    -0.0064918    -0.0023727     0.0077675     0.9037607
        15    -0.0078378     0.0332971    -0.0093943     0.0085544     0.0011911    -0.0034356     0.3434328

   Low Vibration      Wavenumber
        Nr             [1/cm] 
        1                0.00
        2                0.00
        3                0.00
        4                0.00
        5                0.00
        6                0.00

     Vibration        Wavenumber
        Nr             [1/cm] 
        1              162.71
        2              175.29
        3              395.50
        4              513.20
        5              840.68
        6             1146.96
        7             1532.36
        8             1785.77
        9             3791.30

 FREQUENCIES * CALCULATION OF NORMAL MODES FOR UCCSD(T)


 Atomic Coordinates

  Nr  Atom  Charge       X              Y              Z

   1   O     8.00    2.387077294   -0.841839165   -0.309391253
   2   N     7.00    1.117636002    1.025372580    0.330177485
   3   H     1.00   -1.039609777    0.558443741    0.040641773
   4   O     8.00   -3.574498614    0.094117432   -0.267145859
   5   H     1.00   -3.709157096   -1.604935144   -0.912137167

 Frequencies dumped to record   5400.2

 Gradient norm at reference geometry: 0.50103D-02

 ?WARNING: GRADIENT NORM NOT ZERO!

 Molecule is not in standard orientation!
 Symmetry information for normal modes not available!

 Normal Modes

                              1 A         2 A         3 A         4 A         5 A  
 Wavenumbers [cm-1]          162.71      175.29      395.50      513.20      840.68
 Intensities [km/mol]          0.00        0.00        0.00        0.00        0.00
 Intensities [relative]        0.00        0.00        0.00        0.00        0.00
           GX1              0.13486    -0.08696    -0.02943     0.05537    -0.00062
           GY1              0.03934    -0.00656    -0.02425    -0.00417     0.00000
           GZ1             -0.00471    -0.04707    -0.01164     0.00081    -0.00070
           GX2             -0.02262     0.00769     0.16385    -0.00719     0.00250
           GY2             -0.07728     0.02211     0.07094    -0.03405     0.01364
           GZ2              0.00890     0.06823     0.03690    -0.01220    -0.03454
           GX3              0.05768    -0.04892     0.35676    -0.13751    -0.04658
           GY3             -0.13114     0.07578     0.19720     0.06711    -0.34808
           GZ3             -0.03556     0.03422     0.09009     0.01232     0.91489
           GX4             -0.09507     0.07161    -0.13218    -0.09445     0.00089
           GY4              0.04435     0.00114    -0.04640     0.03353     0.00981
           GZ4             -0.03041    -0.05915    -0.02585     0.00701    -0.02611
           GX5             -0.37509     0.18578    -0.06844     0.85777     0.00768
           GY5             -0.12338    -0.29691    -0.06168    -0.05997     0.00284
           GZ5              0.46928     0.70357    -0.00781     0.03317    -0.00936

                              6 A         7 A         8 A         9 A  
 Wavenumbers [cm-1]         1146.96     1532.36     1785.77     3791.30
 Intensities [km/mol]          0.00        0.00        0.00        0.00
 Intensities [relative]        0.00        0.00        0.00        0.00
           GX1             -0.04042     0.08376     0.03307    -0.00015
           GY1              0.05665    -0.12491    -0.00338     0.00011
           GZ1              0.01916    -0.04288     0.00043     0.00004
           GX2             -0.05687    -0.12402    -0.03286     0.00004
           GY2             -0.08537     0.13787    -0.04115     0.00009
           GZ2             -0.03499     0.04569    -0.01742     0.00003
           GX3              0.83408     0.30694    -0.16232     0.01013
           GY3              0.07905     0.03072     0.87943    -0.00928
           GZ3              0.07281     0.02762     0.32836    -0.00303
           GX4              0.02818     0.00378     0.01396    -0.00558
           GY4              0.01351     0.00243    -0.01648    -0.05631
           GZ4              0.00635     0.00106    -0.00565    -0.02142
           GX5              0.15063     0.02696    -0.12762     0.08030
           GY5             -0.00647    -0.00236     0.00774     0.90019
           GZ5              0.00852     0.00119    -0.00342     0.34208


 Normal Modes of low/zero frequencies

                                  1           2           3           4           5
 Wavenumbers [cm-1]            0.00        0.00        0.00        0.00        0.00
 Intensities [km/mol]          0.00        0.00        0.00        0.00        0.00
 Intensities [relative]        0.00        0.00        0.00        0.00        0.00
           GX1              0.14780     0.01265     0.03050     0.00084    -0.00975
           GY1              0.05241     0.09481    -0.02252     0.01025     0.16997
           GZ1             -0.01026    -0.04017     0.03870    -0.04273     0.01412
           GX2              0.10416     0.04875     0.03695    -0.00295    -0.09803
           GY2              0.02877     0.10594    -0.08259    -0.00619     0.08461
           GZ2             -0.02786    -0.00103     0.22686    -0.00225     0.08813
           GX3              0.11536     0.03752     0.03772    -0.00781    -0.07385
           GY3             -0.02233     0.13779    -0.02872    -0.04622     0.00928
           GZ3             -0.02890     0.03130     0.13421     0.09853     0.02947
           GX4              0.12654     0.02601     0.03886    -0.01354    -0.04948
           GY4             -0.08211     0.17490     0.03090    -0.09298    -0.08088
           GZ4             -0.03078     0.07007     0.03489     0.21622    -0.03518
           GX5              0.16639    -0.00791     0.03416    -0.01291     0.03186
           GY5             -0.09027     0.18277     0.10529    -0.10098    -0.05382
           GZ5             -0.01760     0.05641    -0.16009     0.23718    -0.12345

                                  6
 Wavenumbers [cm-1]            0.00
 Intensities [km/mol]          0.00
 Intensities [relative]        0.00
           GX1              0.00664
           GY1             -0.01563
           GZ1              0.22952
           GX2              0.00353
           GY2              0.06706
           GZ2             -0.01805
           GX3              0.00608
           GY3              0.03782
           GZ3              0.01018
           GX4              0.00887
           GY4              0.00746
           GZ4              0.03294
           GX5              0.01256
           GY5             -0.07169
           GZ5              0.24066


 Zero point energy:  0.02356487 [H]     5171.89 [1/CM]       61.87 [KJ/MOL]
 Frequency information read from record  5400.2

        UCCSD(T)        RHF-SCF 
   -206.06556507   -205.29181708
 **********************************************************************************************************************************
 Variable memory released
