
 Primary working directories    : /state/partition1/scr/alex
 Secondary working directories  : /state/partition1/scr/alex
 Wavefunction directory         : /home/alex/wfu/
 Main file repository           : /state/partition1/scr/alex/

 SHA1      : 2c68d29c09da70e1723824271fadde4bcd5f07a0
 ARCHNAME  : Linux/x86_64
 FC        : /usr/bin/gfortran
 FCVERSION : 4.4.7
 BLASLIB   : -L/share/apps/intel/composer_xe_2013.0.079/mkl/lib/intel64 -lmkl_intel_ilp64 -lmkl_sequential -lmkl_core
 id        : varganov

 Nodes            nprocs
 compute-0-4.local   11
 Number of processes for MPI-2 version of Molpro:   nprocs(total)=   12   nprocs(compute)=   11   nprocs(helper)=    1
 ga_uses_ma=false, calling ma_init with nominal heap.
 GA-space will be limited to   8.0 MW (determined by -G option)

 Using customized tuning parameters: mindgm=12; mindgv=20; mindgc=4; mindgr=1; noblas=0; minvec=7
 default implementation of scratch files=sf  

  ***hno,
                                                                                 !memory,2080,m
 memory,500,m
 file,2,hess.wfu;
                                                                                 !gdirect
 print,orbitals
 
  symmetry,nosym
  geomtyp=xyz
   geometry={
 5
 O       1.2631869     -0.4454821     -0.1637228
 N       0.5914275      0.5426038      0.1747224
 H      -0.5501378      0.2955157      0.0215067
 O      -1.8915432      0.0498048     -0.1413675
 H      -1.9628014     -0.8492951     -0.4826822
                }
  basis=aug-cc-pVTZ
 
 
   {rhf;
   wf,26,1,2;
   }
 
 uccsd(t)
 
 {frequencies
 print,hessian
 }

 Variables initialized (766), CPU time= 0.03 sec
 Commands  initialized (545), CPU time= 0.04 sec, 513 directives.
 Default parameters read. Elapsed time= 0.19 sec

 Checking input...
 Passed
1


                                         ***  PROGRAM SYSTEM MOLPRO  ***
                         Copyright, University College Cardiff Consultants Limited, 2008

                                    Version 2012.1 linked 27 May 2015 14:35:18


 **********************************************************************************************************************************
 LABEL *                                                                                 
 Linux-2.6.32-504.16.2.el6.x86_64/compute-0-4.local(x86_64) 64 bit mpp version           DATE: 19-Jan-17          TIME: 15:20:08  
 **********************************************************************************************************************************

 SHA1:             2c68d29c09da70e1723824271fadde4bcd5f07a0
 **********************************************************************************************************************************

 Variable memory set to  500000000 words,  buffer space   230000 words



 Permanent file  2  hess.wfu assigned.  Implementation=df  



 **********************************************************************************************************************************
 DATASETS  * FILE   NREC   LENGTH (MB)   RECORD NAMES
              2       1        0.03       500   
                                          VAR  

 PROGRAMS   *        TOTAL      FILE
 CPU TIMES  *         0.62      0.03
 REAL TIME  *         0.81 SEC
 DISK USED  *         0.36 MB      
 **********************************************************************************************************************************

 SETTING GEOMTYP        =    XYZ
 ZSYMEL=NOSYM

 SETTING BASIS          =    AUG-CC-PVTZ


 Recomputing integrals since basis changed


 Using spherical harmonics

 Library entry O      S aug-cc-pVTZ          selected for orbital group  1
 Library entry O      P aug-cc-pVTZ          selected for orbital group  1
 Library entry O      D aug-cc-pVTZ          selected for orbital group  1
 Library entry O      F aug-cc-pVTZ          selected for orbital group  1
 Library entry N      S aug-cc-pVTZ          selected for orbital group  2
 Library entry N      P aug-cc-pVTZ          selected for orbital group  2
 Library entry N      D aug-cc-pVTZ          selected for orbital group  2
 Library entry N      F aug-cc-pVTZ          selected for orbital group  2
 Library entry H      S aug-cc-pVTZ          selected for orbital group  3
 Library entry H      P aug-cc-pVTZ          selected for orbital group  3
 Library entry H      D aug-cc-pVTZ          selected for orbital group  3

1PROGRAM * SEWARD (Integral evaluation for generally contracted gaussian basis sets)     Author: Roland Lindh, 1990

 Geometry written to block  1 of record 700


 Point group  C1  



 ATOMIC COORDINATES

 NR  ATOM    CHARGE       X              Y              Z

   1  O       8.00    2.387077294   -0.841839165   -0.309391253
   2  N       7.00    1.117636002    1.025372580    0.330177485
   3  H       1.00   -1.039609777    0.558443741    0.040641773
   4  O       8.00   -3.574498614    0.094117432   -0.267145859
   5  H       1.00   -3.709157096   -1.604935144   -0.912137167

 Bond lengths in Bohr (Angstrom)

 1-2  2.346701742  2-3  2.226109345  4-5  1.822340898
     ( 1.241821078)     ( 1.178006330)     ( 0.964341270)

 Bond angles

  1-2-3  108.77617118

 NUCLEAR CHARGE:                   25
 NUMBER OF PRIMITIVE AOS:         255
 NUMBER OF SYMMETRY AOS:          224
 NUMBER OF CONTRACTIONS:          184   ( 184A   )
 NUMBER OF CORE ORBITALS:           3   (   3A   )
 NUMBER OF VALENCE ORBITALS:       14   (  14A   )


 NUCLEAR REPULSION ENERGY   61.67170135


 Eigenvalues of metric

         1 0.198E-03 0.311E-03 0.495E-03 0.622E-03 0.102E-02 0.153E-02 0.176E-02 0.209E-02


 Contracted 2-electron integrals neglected if value below      1.0D-11
 AO integral compression algorithm  1   Integral accuracy      1.0D-11

     662.962 MB (compressed) written to integral file ( 47.8%)

     Node minimum: 52.429 MB, node maximum: 67.633 MB


 NUMBER OF SORTED TWO-ELECTRON INTEGRALS:   13171158.     BUFFER LENGTH:  32768
 NUMBER OF SEGMENTS:   1  SEGMENT LENGTH:   13171158      RECORD LENGTH: 524288

 Memory used in sort:      13.73 MW

 SORT1 READ   173163987. AND WROTE    12509026. INTEGRALS IN     36 RECORDS. CPU TIME:     3.54 SEC, REAL TIME:     3.71 SEC
 SORT2 READ   137929540. AND WROTE   144848710. INTEGRALS IN   2838 RECORDS. CPU TIME:     0.44 SEC, REAL TIME:     0.72 SEC

 Node minimum:    13160329.  Node maximum:    13175802. integrals

 OPERATOR DM      FOR CENTER  0  COORDINATES:    0.000000    0.000000    0.000000


 **********************************************************************************************************************************
 DATASETS  * FILE   NREC   LENGTH (MB)   RECORD NAMES
              1      18        8.86       500      610      700      900      950      970     1000      129      960     1100   
                                          VAR    BASINP    GEOM    SYMINP    ZMAT    AOBASIS   BASIS     P2S    ABASIS      S 
                                         1400     1410     1200     1210     1080     1600     1650     1700   
                                           T        V       H0       H01     AOSYM     SMH    MOLCAS    OPER   

              2       5        1.28       500      610      700     1000      520   
                                          VAR    BASINP    GEOM     BASIS   MCVARS    

 PROGRAMS   *        TOTAL       INT      FILE
 CPU TIMES  *         5.93      5.17      0.03
 REAL TIME  *         7.05 SEC
 DISK USED  *         2.29 GB      
 GA USED    *         0.00 MB       (max)       0.00 MB       (current)
 **********************************************************************************************************************************

1PROGRAM * RHF-SCF (OPEN SHELL)       Authors: W. Meyer, H.-J. Werner


 NUMBER OF ELECTRONS:      14+   12-    SPACE SYMMETRY=1    SPIN SYMMETRY: Triplet 
 CONVERGENCE THRESHOLDS:    1.00E-06 (Density)    1.00E-07 (Energy)
 MAX. NUMBER OF ITERATIONS:       60
 INTERPOLATION TYPE:            DIIS
 INTERPOLATION STEPS:              2 (START)      1 (STEP)
 LEVEL SHIFTS:                 -0.30 (CLOSED) -0.00 (OPEN) 



 Orbital guess generated from atomic densities. Full valence occupancy:   17

 Molecular orbital dump at record        2100.2

 ITERATION    DDIFF          GRAD             ENERGY        2-EL.EN.            DIPOLE MOMENTS         DIIS   ORB.
    1      0.000D+00      0.000D+00      -205.20317703    292.642641    1.07869   -0.59325   -0.04996    0    start
    2      0.000D+00      0.673D-02      -205.27923499    287.901677    0.82521   -0.48126   -0.02194    1    diag,B
    3      0.687D-02      0.362D-02      -205.29914293    289.228261    0.88054   -0.40212    0.01104    2    diag,B
    4      0.251D-02      0.510D-03      -205.30102158    289.065757    0.90442   -0.38747    0.01780    3    diag,B
    5      0.546D-03      0.252D-03      -205.30173996    289.037910    0.91096   -0.35398    0.03079    4    diag,B
    6      0.300D-03      0.167D-03      -205.30215522    289.009214    0.92723   -0.34417    0.03535    5    diag,B
    7      0.222D-03      0.103D-03      -205.30249486    288.994764    0.94260   -0.33017    0.04144    6    fixocc
    8      0.230D-03      0.665D-04      -205.30269953    289.001012    0.95468   -0.32320    0.04471    7    diag,B
    9      0.194D-03      0.424D-04      -205.30278243    289.001200    0.95952   -0.32456    0.04445    8    diag,B
   10      0.110D-03      0.331D-04      -205.30283920    289.002846    0.96451   -0.33017    0.04258    9    orth
   11      0.912D-04      0.277D-04      -205.30288900    288.997966    0.97283   -0.34034    0.03917    9    diag,B
   12      0.107D-03      0.195D-04      -205.30291910    288.993046    0.98440   -0.35196    0.03538    9    diag,B
   13      0.112D-03      0.115D-04      -205.30292763    288.990047    0.99376   -0.36040    0.03268    9    diag,B
   14      0.758D-04      0.376D-05      -205.30292817    288.988323    0.99614   -0.36173    0.03230    9    diag,B
   15      0.178D-04      0.230D-05      -205.30292829    288.988141    0.99761   -0.36300    0.03189    9    diag,B
   16      0.110D-04      0.727D-06      -205.30292829    288.988258    0.99748   -0.36275    0.03198    9    diag,B
   17      0.303D-05      0.435D-06      -205.30292830    288.988178    0.99764   -0.36287    0.03195    9    diag,B
   18      0.148D-05      0.221D-06      -205.30292830    288.988212    0.99765   -0.36288    0.03194    9    diag,B
   19      0.706D-06      0.117D-06      -205.30292830    288.988208    0.99767   -0.36288    0.03194    0    orth

 Final alpha occupancy:  14
 Final beta  occupancy:  12

 !RHF STATE 1.1 Energy               -205.302928298169
 Nuclear energy                        61.67170135
 One-electron energy                 -411.46873343
 Two-electron energy                  144.49410378
 Virial quotient                       -1.00139569
 !RHF STATE 1.1 Dipole moment           0.99766789    -0.36288277     0.03194281
 Dipole moment /Debye                   2.53565275    -0.92229558     0.08118520

 ELECTRON ORBITALS
 =================


   Orb  Occ    Energy  Couls-En    Coefficients

                                   1 1s      1 1s      1 1s      1 1s      1 1s      1 2px     1 2py     1 2pz     1 2px     1 2py  
                                   1 2pz     1 2px     1 2py     1 2pz     1 2px     1 2py     1 2pz     1 3d0     1 3d2-    1 3d1+ 
                                   1 3d2+    1 3d1-    1 3d0     1 3d2-    1 3d1+    1 3d2+    1 3d1-    1 3d0     1 3d2-    1 3d1+ 
                                   1 3d2+    1 3d1-    1 4f1+    1 4f1-    1 4f0     1 4f3+    1 4f2-    1 4f3-    1 4f2+    1 4f1+ 
                                   1 4f1-    1 4f0     1 4f3+    1 4f2-    1 4f3-    1 4f2+    2 1s      2 1s      2 1s      2 1s   
                                   2 1s      2 2px     2 2py     2 2pz     2 2px     2 2py     2 2pz     2 2px     2 2py     2 2pz  
                                   2 2px     2 2py     2 2pz     2 3d0     2 3d2-    2 3d1+    2 3d2+    2 3d1-    2 3d0     2 3d2- 
                                   2 3d1+    2 3d2+    2 3d1-    2 3d0     2 3d2-    2 3d1+    2 3d2+    2 3d1-    2 4f1+    2 4f1- 
                                   2 4f0     2 4f3+    2 4f2-    2 4f3-    2 4f2+    2 4f1+    2 4f1-    2 4f0     2 4f3+    2 4f2- 
                                   2 4f3-    2 4f2+    3 1s      3 1s      3 1s      3 1s      3 2px     3 2py     3 2pz     3 2px  
                                   3 2py     3 2pz     3 2px     3 2py     3 2pz     3 3d0     3 3d2-    3 3d1+    3 3d2+    3 3d1- 
                                   3 3d0     3 3d2-    3 3d1+    3 3d2+    3 3d1-    4 1s      4 1s      4 1s      4 1s      4 1s   
                                   4 2px     4 2py     4 2pz     4 2px     4 2py     4 2pz     4 2px     4 2py     4 2pz     4 2px  
                                   4 2py     4 2pz     4 3d0     4 3d2-    4 3d1+    4 3d2+    4 3d1-    4 3d0     4 3d2-    4 3d1+ 
                                   4 3d2+    4 3d1-    4 3d0     4 3d2-    4 3d1+    4 3d2+    4 3d1-    4 4f1+    4 4f1-    4 4f0  
                                   4 4f3+    4 4f2-    4 4f3-    4 4f2+    4 4f1+    4 4f1-    4 4f0     4 4f3+    4 4f2-    4 4f3- 
                                   4 4f2+    5 1s      5 1s      5 1s      5 1s      5 2px     5 2py     5 2pz     5 2px     5 2py  
                                   5 2pz     5 2px     5 2py     5 2pz     5 3d0     5 3d2-    5 3d1+    5 3d2+    5 3d1-    5 3d0  
                                   5 3d2-    5 3d1+    5 3d2+    5 3d1- 

   1.1   2   -20.3918  -57.0543  0.998503 -0.003844  0.001479  0.003116 -0.000661 -0.002587  0.003893  0.001337  0.002555 -0.003740
                                -0.001281  0.000507 -0.000450 -0.000144  0.000031 -0.000025 -0.000008 -0.000016 -0.000114 -0.000043
                                -0.000031  0.000018  0.000391  0.000707  0.000238  0.000234 -0.000354 -0.000129 -0.000203 -0.000072
                                -0.000192  0.000169 -0.000020  0.000025  0.000031 -0.000051  0.000037 -0.000005  0.000020 -0.000030
                                 0.000053  0.000058 -0.000141  0.000084 -0.000057  0.000012  0.000561  0.001746 -0.000579 -0.001145
                                 0.000939 -0.000022 -0.000027 -0.000011  0.001114 -0.001378 -0.000463 -0.000993  0.000395  0.000097
                                -0.000034 -0.000226 -0.000087 -0.000099 -0.000196 -0.000068 -0.000078  0.000097 -0.000431 -0.000795
                                -0.000273 -0.000363  0.000434 -0.000005  0.000180  0.000074  0.000111 -0.000033 -0.000039  0.000044
                                 0.000050 -0.000072  0.000057 -0.000032  0.000023 -0.000017  0.000096  0.000130 -0.000310  0.000166
                                 0.000047  0.000101  0.000070 -0.000401  0.000125  0.000023  0.000037 -0.000005  0.000000  0.000024
                                -0.000085 -0.000031 -0.000794 -0.000063 -0.000066  0.000028  0.000044  0.000013 -0.000009 -0.000015
                                -0.000185  0.000069  0.000064  0.000412 -0.000035 -0.000022 -0.000042  0.000012 -0.000334 -0.000742
                                 0.000033  0.000014  0.000007 -0.000091 -0.000048 -0.000023 -0.000095 -0.000197 -0.000079 -0.000217
                                -0.000009 -0.000015  0.000001 -0.000004 -0.000001  0.000002 -0.000002 -0.000000  0.000010  0.000002
                                -0.000038  0.000017 -0.000067 -0.000058 -0.000014  0.000029  0.000034  0.000011  0.000001  0.000004
                                -0.000001 -0.000007  0.000003  0.000002 -0.000038 -0.000002 -0.000009 -0.000003  0.000031  0.000022
                                 0.000012  0.000007 -0.000263  0.000130 -0.000037 -0.000003 -0.000016 -0.000006 -0.000065 -0.000049
                                -0.000022  0.000053  0.000005  0.000005  0.000003 -0.000005 -0.000002  0.000003 -0.000004 -0.000015
                                 0.000004  0.000004  0.000032 -0.000002

   2.1   2   -20.2768  -55.9111 -0.000004 -0.000032  0.000009 -0.000157 -0.000236 -0.000015  0.000009  0.000003  0.000068 -0.000013
                                -0.000001 -0.000138 -0.000071 -0.000034  0.000096 -0.000063 -0.000019  0.000000 -0.000000 -0.000000
                                -0.000003  0.000001  0.000002  0.000005  0.000002  0.000011 -0.000006 -0.000033 -0.000082 -0.000023
                                 0.000104 -0.000026 -0.000012 -0.000002 -0.000005  0.000011  0.000003 -0.000001 -0.000001  0.000042
                                 0.000000  0.000011 -0.000036 -0.000008  0.000031  0.000013 -0.000175 -0.000572  0.000098 -0.001086
                                -0.000463 -0.000025 -0.000017 -0.000008  0.000260  0.000064  0.000038 -0.000067  0.000135  0.000047
                                 0.000011  0.000095  0.000036  0.000022 -0.000014 -0.000009 -0.000039 -0.000001 -0.000019 -0.000054
                                -0.000016  0.000062 -0.000016 -0.000253 -0.000062  0.000020  0.000381  0.000022 -0.000022 -0.000007
                                -0.000012  0.000016  0.000009  0.000014  0.000004  0.000041  0.000009  0.000017 -0.000062  0.000002
                                -0.000011 -0.000005 -0.000428  0.000326  0.000721  0.000037 -0.000053 -0.000012 -0.000007 -0.000264
                                -0.000054 -0.000034  0.002127 -0.000036  0.000098 -0.000110  0.000051  0.000040  0.000199  0.000000
                                -0.000308  0.000183  0.000128  0.000586 -0.000009  0.998891 -0.002633  0.001155  0.000521  0.001140
                                 0.000950 -0.003358 -0.001211 -0.000870  0.002884  0.001037 -0.000025  0.001096  0.000411  0.000286
                                -0.000063 -0.000009 -0.000029  0.000029  0.000013 -0.000034  0.000039  0.000289 -0.000223 -0.000103
                                 0.000272 -0.000353 -0.000065 -0.000034 -0.000013 -0.000169  0.000121  0.000013 -0.000008 -0.000013
                                -0.000015 -0.000001 -0.000022 -0.000022  0.000014 -0.000006 -0.000026 -0.000088  0.000033 -0.000099
                                -0.000072  0.002239  0.000141 -0.001165  0.000028  0.000015  0.000248  0.000094 -0.000093  0.001057
                                 0.000392 -0.000112  0.000149  0.000050  0.000023 -0.000031 -0.000012  0.000053 -0.000043 -0.000154
                                -0.000030 -0.000014 -0.000441  0.000307

   3.1   2   -15.4096  -45.5332  0.000233  0.001459 -0.000224  0.002593  0.001298 -0.000206  0.000408  0.000143 -0.000451  0.000844
                                 0.000296 -0.000686  0.000946  0.000322 -0.000087  0.000167  0.000059 -0.000052 -0.000092 -0.000031
                                -0.000028  0.000046 -0.000071 -0.000169 -0.000061 -0.000089  0.000081 -0.000097 -0.000102 -0.000031
                                -0.000054  0.000091 -0.000020  0.000029  0.000035 -0.000071  0.000047 -0.000001  0.000024 -0.000034
                                 0.000064  0.000075 -0.000132  0.000081 -0.000047  0.000029  0.998950 -0.002118  0.001305  0.001291
                                 0.000247  0.002016 -0.004801 -0.001710 -0.001854  0.003739  0.001317 -0.002717  0.003227  0.001077
                                -0.000447  0.000122  0.000023 -0.000163 -0.000181 -0.000051  0.000002  0.000111  0.000363  0.000843
                                 0.000299  0.000384 -0.000388  0.000221  0.000116  0.000024  0.000065 -0.000189  0.000072  0.000021
                                 0.000032 -0.000092 -0.000010 -0.000069 -0.000029  0.000033 -0.000134 -0.000153  0.000332 -0.000168
                                 0.000158 -0.000020  0.001180 -0.001487 -0.002180  0.000049 -0.000015  0.000010  0.000003  0.000452
                                 0.000098  0.000061 -0.003163 -0.000964 -0.000529  0.000141 -0.000124 -0.000073 -0.000252 -0.000006
                                -0.000104 -0.000060  0.000006  0.000383 -0.000093 -0.000037 -0.000168 -0.000030  0.000169 -0.000734
                                -0.000155 -0.000035 -0.000021  0.000128  0.000052  0.000026  0.000168 -0.000499 -0.000178 -0.000219
                                -0.000128 -0.000059  0.000015 -0.000011 -0.000007 -0.000023 -0.000002 -0.000086  0.000090  0.000049
                                 0.000145  0.000009 -0.000251  0.000076  0.000062  0.000157  0.000128 -0.000005 -0.000007 -0.000010
                                 0.000016 -0.000003  0.000011  0.000000 -0.000091  0.000008  0.000003  0.000136 -0.000009  0.000016
                                 0.000034  0.000073 -0.000552 -0.000958 -0.000084  0.000006  0.000007  0.000003  0.000133 -0.000100
                                -0.000031 -0.000128 -0.000216 -0.000088  0.000007  0.000035  0.000012 -0.000007 -0.000000 -0.000015
                                 0.000085  0.000034  0.000002  0.000017

   4.1   2    -1.2374  -13.5039 -0.007762  0.746368 -0.006604 -0.041121  0.001755 -0.106295  0.148196  0.050471 -0.002197  0.004124
                                 0.001445  0.023104 -0.033850 -0.011588  0.002860 -0.004248 -0.001457 -0.003175 -0.006285 -0.002154
                                -0.002276  0.002997 -0.007326 -0.014619 -0.005019 -0.005322  0.006937  0.001785  0.003457  0.001204
                                 0.001787 -0.001913  0.001259 -0.001773 -0.002065  0.003776 -0.002553  0.000959 -0.001022  0.000440
                                -0.000577 -0.000663  0.001236 -0.000855  0.000332 -0.000323 -0.010337  0.479991 -0.004946 -0.094103
                                 0.002043  0.109384 -0.186897 -0.064943 -0.012939  0.009521  0.002922 -0.036612  0.063312  0.022021
                                -0.001220  0.001396  0.000464 -0.005986 -0.009287 -0.003042 -0.003266  0.005378 -0.009228 -0.012328
                                -0.003839 -0.002908  0.007493  0.003685  0.002349  0.000506  0.000075 -0.002694 -0.000678  0.002093
                                 0.002532 -0.004704  0.002546 -0.001552  0.000901  0.000025 -0.000134 -0.000014  0.000329 -0.000096
                                 0.001147  0.000551  0.087209 -0.022558 -0.049130  0.001679  0.002778 -0.000103  0.000106  0.001278
                                -0.002333 -0.000814 -0.008352  0.001172  0.000004 -0.000038 -0.000721 -0.000265  0.000125 -0.000077
                                 0.002412 -0.005523 -0.002381 -0.000549 -0.001989 -0.000203  0.025414 -0.000486  0.005423  0.006155
                                 0.005757 -0.001173 -0.000138  0.001041  0.000168  0.000118 -0.003328 -0.009464 -0.003741 -0.000134
                                -0.002901 -0.001100 -0.000098  0.000034  0.000027  0.000075  0.000044 -0.000504  0.000231  0.000155
                                 0.000340  0.000251 -0.000367 -0.001552 -0.000679 -0.002852  0.001418 -0.000087 -0.000026 -0.000037
                                 0.000106  0.000015  0.000100  0.000044 -0.000033  0.000187  0.000269  0.000311 -0.000193 -0.000187
                                 0.000115  0.010078 -0.011822 -0.009894 -0.001495  0.000001  0.000282  0.000105  0.001369 -0.001100
                                -0.000337  0.001689 -0.000656 -0.000154  0.000034  0.000174  0.000062 -0.000014 -0.000008 -0.000736
                                 0.000596  0.000322  0.000418  0.000420

   5.1   2    -1.0161  -11.4902  0.000366 -0.060218  0.000418 -0.001759 -0.002122 -0.003117 -0.006299 -0.002544  0.000556 -0.000657
                                -0.000219  0.001202 -0.000526 -0.000138 -0.000178  0.000126  0.000036  0.000079  0.000163  0.000065
                                 0.000265 -0.000165  0.000324  0.000704  0.000269  0.000803 -0.000553  0.000165  0.000249  0.000104
                                 0.000588 -0.000369 -0.000071  0.000088  0.000111 -0.000216  0.000154  0.000043  0.000100  0.000123
                                 0.000123  0.000198 -0.000364  0.000091  0.000048  0.000118 -0.000361  0.019128 -0.000435  0.000198
                                -0.000865 -0.036332  0.010704  0.002146  0.000800 -0.001947 -0.000694  0.004443 -0.005527 -0.001850
                                 0.000366 -0.000566 -0.000192 -0.000009  0.001053  0.000435  0.000773 -0.000260 -0.001195  0.002266
                                 0.001112  0.002828 -0.000171 -0.001338  0.001936  0.000963  0.001979  0.000287  0.000206 -0.000048
                                -0.000032 -0.000026 -0.000123 -0.000003 -0.000065  0.000422  0.000068  0.000130 -0.000193 -0.000231
                                -0.000344 -0.000167  0.134520 -0.029872 -0.034273  0.001981 -0.003644 -0.000924 -0.000539 -0.016617
                                -0.003286 -0.002110  0.000600  0.002019  0.000790 -0.001253  0.000931  0.000579  0.002120  0.000092
                                -0.004067  0.003527  0.002051  0.006461  0.000518 -0.008672  0.870829 -0.005710 -0.022000  0.024354
                                 0.019499 -0.088822 -0.032320  0.003112 -0.003463 -0.001136 -0.009336  0.021277  0.007497 -0.002967
                                -0.002351 -0.001039 -0.001650  0.000579  0.000294 -0.002285  0.002290 -0.004361  0.001316  0.000771
                                -0.004325  0.005290  0.003088 -0.001220 -0.000746  0.001005 -0.002869 -0.000471  0.000355  0.000693
                                 0.000794 -0.000067  0.001516  0.001328  0.000059  0.000107  0.000128  0.000053 -0.000114 -0.000351
                                -0.000089  0.409830 -0.114082 -0.160748 -0.003151  0.001282  0.012808  0.004876  0.001772  0.008649
                                 0.003341  0.000376 -0.005323 -0.001978 -0.000782  0.000410  0.000149 -0.002031  0.001508  0.000620
                                 0.000185  0.000081  0.001736 -0.001215

   6.1   2    -0.7130  -11.2772  0.001053  0.535523  0.000234  0.092377  0.047165  0.181717 -0.213317 -0.071146 -0.005440  0.008944
                                 0.003097 -0.026766  0.034129  0.011504 -0.001919  0.000635  0.000139  0.002228  0.004077  0.001344
                                 0.000660 -0.001713  0.003401  0.006803  0.002221 -0.000146 -0.002067  0.000471 -0.000468 -0.000256
                                -0.000626 -0.000119 -0.000511  0.000462  0.000463 -0.000600  0.000559 -0.000675  0.000064  0.000064
                                 0.000020  0.000005 -0.000013 -0.000060 -0.000272 -0.000140  0.001499 -0.706796  0.004438 -0.045926
                                -0.047506  0.181485 -0.057637 -0.012285 -0.005502  0.012843  0.004568 -0.012780  0.013484  0.004433
                                 0.005469  0.001893  0.001004  0.001273 -0.002910 -0.001371 -0.002939  0.000114  0.006065 -0.004967
                                -0.002971 -0.009960 -0.000613  0.002058 -0.000710 -0.000647 -0.003571 -0.000056 -0.000875 -0.000670
                                -0.000975  0.002409 -0.000525  0.000568 -0.000112 -0.001276 -0.000446 -0.000602  0.001069  0.000541
                                 0.001968  0.000831 -0.319938  0.082785  0.131122  0.004405 -0.009176 -0.002533 -0.001438 -0.007034
                                -0.003214 -0.001584  0.018964  0.006606  0.003485  0.001469 -0.000918 -0.000604 -0.002250 -0.000199
                                 0.003430 -0.002051 -0.001401 -0.005825 -0.000207 -0.000913  0.089589  0.000009  0.013597  0.014200
                                -0.064840 -0.040486 -0.018622  0.000968  0.000053  0.000071  0.012637  0.010023  0.004427  0.002469
                                 0.000928  0.000479  0.000192 -0.000006 -0.000089 -0.001509  0.000512  0.000293  0.000132 -0.000118
                                -0.003101  0.001139 -0.000057 -0.000206 -0.000001  0.001598 -0.000667  0.000208  0.000117  0.000231
                                 0.000047 -0.000190  0.000067  0.000152  0.000119  0.000002  0.000009 -0.000463  0.000171  0.000069
                                -0.000007  0.084092 -0.016396 -0.024178 -0.001112 -0.000459  0.002354  0.000860 -0.002332  0.002481
                                 0.000809 -0.000396  0.000436  0.000142 -0.000221 -0.000219 -0.000086 -0.000618  0.000422  0.000336
                                -0.000681 -0.000280  0.000316 -0.000440

   7.1   2    -0.4627  -10.8960 -0.002183 -0.202057 -0.003133 -0.068685 -0.021816 -0.044080  0.529292  0.197833  0.004085 -0.002090
                                -0.000576  0.013025 -0.007412 -0.002124 -0.002033  0.014496  0.005373 -0.002938 -0.004875 -0.001820
                                -0.006332  0.004699 -0.006228 -0.009920 -0.003842 -0.016634  0.011404 -0.003365 -0.003015 -0.001188
                                -0.009115  0.006382  0.000432 -0.001493 -0.002172  0.003653 -0.002110 -0.001503 -0.002123  0.000261
                                -0.001013 -0.001500  0.001936 -0.001105 -0.000911 -0.001427 -0.000446  0.047306  0.001023 -0.050670
                                -0.024354  0.502857 -0.128704 -0.022319 -0.012676  0.009112  0.002782 -0.053664  0.032316  0.009409
                                 0.008604 -0.000370  0.000312 -0.001924 -0.011015 -0.004098 -0.002515  0.001812 -0.001758 -0.021278
                                -0.008070 -0.003632  0.001459  0.003909 -0.001436 -0.001477 -0.011791  0.002092 -0.002402  0.001324
                                 0.001010 -0.001544  0.002116 -0.002829 -0.000272 -0.000619 -0.000570 -0.000693 -0.000350  0.000894
                                 0.002308  0.000735 -0.415864  0.069270  0.133564  0.007111 -0.005472 -0.002218 -0.001125 -0.001497
                                -0.004631 -0.001829 -0.012407  0.001679 -0.000011  0.002154 -0.001916 -0.001097 -0.003172 -0.000389
                                 0.005033 -0.008524 -0.004069 -0.006684 -0.001510 -0.001195  0.026036  0.000565 -0.003903  0.000675
                                -0.216548 -0.162351 -0.072360  0.001084  0.003166  0.001246  0.011238  0.013300  0.005578 -0.007814
                                -0.004631 -0.002150  0.000108  0.000502  0.000019 -0.003601  0.001523  0.000723  0.000360 -0.000280
                                -0.007656  0.002814 -0.000768 -0.000290  0.000083  0.002587 -0.000568  0.000522  0.000284  0.000552
                                 0.000139 -0.000496  0.000053  0.000309  0.000464  0.000245  0.000445 -0.000101 -0.000328 -0.000102
                                 0.000161  0.213632 -0.029393 -0.064656 -0.003099 -0.002026  0.005059  0.001793 -0.004982  0.007783
                                 0.002659 -0.004731 -0.004165 -0.001814 -0.000695 -0.000656 -0.000250 -0.001730  0.001236  0.000678
                                -0.000682 -0.000346 -0.000345 -0.000413

   8.1   2    -0.3775  -10.9707  0.000000 -0.000027 -0.000001 -0.000007  0.000025 -0.039711 -0.284151  0.751286 -0.000108 -0.000772
                                 0.002043 -0.001240 -0.008907  0.023557 -0.002457 -0.017585  0.046516  0.003375  0.001156 -0.003956
                                 0.002355  0.004951  0.009279  0.003262 -0.011101  0.006499  0.013643  0.002909  0.000769 -0.002795
                                 0.001964  0.004181 -0.001628  0.003291 -0.002221 -0.001410 -0.002911  0.000769 -0.000449 -0.000494
                                 0.001672 -0.001100 -0.000464 -0.001006  0.000328 -0.000181 -0.000000 -0.000095 -0.000000 -0.000068
                                -0.000059 -0.018515 -0.133116  0.351294  0.000183  0.001337 -0.003515  0.002209  0.015985 -0.042230
                                 0.000395  0.002890 -0.007662 -0.005833 -0.001585  0.005710 -0.003952 -0.008394 -0.012985 -0.004148
                                 0.014385 -0.008977 -0.018921  0.002151 -0.000299  0.000296  0.001204  0.002767 -0.001954  0.003846
                                -0.002711 -0.001719 -0.003516  0.000836 -0.000375 -0.001251  0.002417 -0.000766 -0.000835 -0.001878
                                 0.001125 -0.001539  0.000029  0.000016 -0.000021  0.000022 -0.000113 -0.000844  0.002227 -0.000390
                                -0.002823  0.007456  0.000215  0.001410 -0.003618  0.000266 -0.000478  0.001223  0.000025  0.000179
                                 0.001891 -0.003499  0.008951  0.000151  0.001221 -0.000001 -0.000137 -0.000000 -0.000058 -0.000046
                                -0.001535 -0.011606  0.030031  0.000014  0.000109 -0.000269 -0.000433 -0.003069  0.008107 -0.000217
                                -0.001532  0.003999 -0.000084 -0.000021  0.000077 -0.000058 -0.000117 -0.000094 -0.000275  0.000758
                                -0.000138 -0.000224  0.000195 -0.001460  0.003863 -0.000307 -0.000283  0.000012  0.000060  0.000003
                                 0.000017  0.000022  0.000032 -0.000058  0.000153  0.000288 -0.000552 -0.000007  0.000014 -0.000229
                                 0.000531  0.000277 -0.000055 -0.000024 -0.000010 -0.000022 -0.000157  0.000434 -0.000013 -0.000112
                                 0.000328  0.000009 -0.000087  0.000276  0.000082  0.000000 -0.000020  0.000048  0.000114  0.000003
                                -0.000115  0.000319 -0.000025 -0.000030

   9.1   2    -0.3736  -10.6925  0.000535  0.059949  0.002237  0.009850 -0.013305  0.646470 -0.038886  0.019645  0.001632 -0.000222
                                 0.000003  0.023727 -0.005364 -0.000773  0.032104 -0.002254  0.000861  0.003157  0.007135  0.002216
                                -0.003694 -0.000291  0.007418  0.017868  0.005548 -0.010445  0.000173  0.005229  0.010180  0.003096
                                -0.005085 -0.001055 -0.001970  0.001391  0.001003 -0.002031  0.001983 -0.003994 -0.000944 -0.001238
                                 0.000413  0.000058 -0.000813  0.001129 -0.001802 -0.000625  0.001623  0.241456 -0.000699  0.170131
                                 0.086080  0.096229  0.514775  0.199927  0.004150 -0.015412 -0.005612 -0.008240 -0.059249 -0.022868
                                 0.001612  0.004986  0.001960  0.003369  0.002211  0.000947  0.010506 -0.007062  0.001255 -0.001311
                                 0.000558  0.026984 -0.012951 -0.003028  0.005370  0.002472  0.002326  0.001677 -0.000332 -0.001018
                                -0.001905  0.002630 -0.001205 -0.003086 -0.002601  0.000539  0.000631  0.000237 -0.003806  0.001298
                                -0.004192 -0.002138 -0.042986 -0.025859  0.000007 -0.008751 -0.001403  0.003523  0.001260 -0.009973
                                 0.005335  0.001498 -0.009597 -0.009831 -0.004208  0.000790  0.001501  0.000430 -0.001344  0.000092
                                -0.002697  0.004907  0.002058 -0.002401  0.003467  0.000197  0.041944  0.000260  0.016505  0.007210
                                -0.050446  0.073011  0.024874 -0.000402 -0.002259 -0.000871 -0.001074  0.004239  0.001568 -0.002949
                                 0.005777  0.002029  0.000438  0.000206  0.000050  0.000430 -0.000507  0.000842  0.001703  0.000564
                                 0.000148 -0.000586  0.000171  0.004686  0.001853  0.001962 -0.000667  0.000062 -0.000059 -0.000102
                                -0.000020 -0.000033 -0.000181 -0.000170  0.000185 -0.000357 -0.000357  0.000052 -0.000025  0.001017
                                 0.000212 -0.061559  0.009252  0.006833  0.003937 -0.000686 -0.001111 -0.000451 -0.002521 -0.002580
                                -0.001103 -0.004837 -0.002475 -0.001191  0.000128 -0.000289 -0.000102  0.000470 -0.000321  0.001110
                                -0.000258 -0.000252 -0.000842 -0.000497

  10.1   2    -0.3486   -9.7660 -0.000239 -0.020550 -0.001104 -0.012123 -0.005503 -0.041239  0.183643  0.067642  0.000640 -0.000071
                                 0.000008  0.001107  0.002534  0.001034 -0.005772  0.004530  0.001434 -0.001062 -0.001848 -0.000673
                                -0.001844  0.001500 -0.002155 -0.003987 -0.001503 -0.004807  0.003500 -0.000495 -0.001772 -0.000764
                                -0.003188  0.001664  0.000254 -0.000607 -0.000831  0.001330 -0.000809 -0.000272 -0.000687  0.000134
                                -0.000278 -0.000350  0.000824 -0.000495 -0.000026 -0.000240 -0.001223 -0.124701  0.000158 -0.058398
                                -0.041105  0.180929 -0.122784 -0.036793 -0.005299  0.006830  0.002300 -0.019235  0.023137  0.007709
                                 0.015324  0.000509  0.000995 -0.001631 -0.004438 -0.001554 -0.000956  0.001355 -0.003272 -0.009201
                                -0.003136  0.000191  0.001769 -0.000590 -0.001318 -0.000379  0.001245 -0.000181 -0.000615  0.000545
                                 0.000511 -0.001224  0.000949 -0.000771  0.000041 -0.000040 -0.000095 -0.000071  0.000122  0.000015
                                 0.000532  0.000220 -0.000386 -0.009725 -0.007335 -0.002875 -0.007930  0.000061 -0.000397 -0.015053
                                 0.002019 -0.000041  0.012488  0.003523  0.001983  0.000257 -0.002387 -0.000915  0.000349 -0.000515
                                -0.000634 -0.010846 -0.003778  0.005953 -0.002876  0.002937  0.270680  0.000366  0.160920  0.109339
                                 0.047571  0.644477  0.244470  0.000860 -0.014941 -0.005564  0.009251 -0.040231 -0.014622  0.011284
                                 0.027299  0.010847  0.002745 -0.000340 -0.000120  0.006812 -0.005079  0.002866  0.003750  0.001745
                                 0.014364 -0.008178 -0.002369  0.000313  0.000537  0.003853  0.000139 -0.000213 -0.000815 -0.001428
                                -0.000358  0.000437 -0.000995 -0.001430 -0.001103 -0.000878 -0.001415  0.001560  0.000123  0.000277
                                -0.000550 -0.634550  0.052674  0.126330  0.000622 -0.000711 -0.011851 -0.004487 -0.002325 -0.028904
                                -0.010976  0.000931  0.007039  0.002688  0.002076 -0.000331 -0.000137  0.004726 -0.003661  0.000063
                                -0.000140  0.000027  0.001979 -0.000921

  11.1   2    -0.2287   -9.9895 -0.000118 -0.003550 -0.000606  0.002431  0.012131  0.151437  0.210242  0.087355  0.000659  0.000683
                                 0.000293  0.010726  0.012441  0.005261  0.006024  0.016544  0.006560 -0.000370  0.000020 -0.000072
                                -0.002717  0.001481 -0.000699  0.001291  0.000254 -0.007112  0.003755  0.000735  0.001791  0.000392
                                -0.004914  0.001726 -0.000212 -0.000327 -0.000670  0.000912 -0.000366 -0.001281 -0.000991 -0.000082
                                 0.000030 -0.000110 -0.000153  0.000078 -0.000901 -0.000499 -0.002169 -0.166718 -0.000744 -0.061694
                                -0.070440  0.213762 -0.053497 -0.009037 -0.006433  0.002580  0.000640 -0.023042  0.008133  0.001887
                                 0.018313  0.005513  0.003047 -0.001995 -0.003536 -0.001004  0.002986 -0.000031 -0.006301 -0.005540
                                -0.000910  0.012210 -0.000930 -0.001987  0.010254  0.004316  0.004859  0.000102 -0.000572  0.000563
                                 0.000337 -0.000521  0.000417 -0.002575 -0.000919  0.000840 -0.000134 -0.000224 -0.001300  0.000084
                                -0.000811 -0.000768  0.177244 -0.043026 -0.002991  0.003748 -0.011741 -0.004039 -0.002136 -0.047058
                                -0.016230 -0.008584 -0.007193  0.004937  0.001479  0.000188  0.000202  0.000040 -0.000327  0.000012
                                -0.009406  0.003131  0.002743  0.013005  0.001692 -0.000638 -0.065753 -0.001689 -0.066612 -0.051106
                                 0.784315 -0.140656 -0.011453 -0.000848  0.004123  0.001503  0.044691  0.010286  0.006213  0.076869
                                -0.009646  0.000429 -0.001513 -0.002997 -0.000935  0.000826  0.000579 -0.004245 -0.008392 -0.002416
                                 0.006872 -0.000361 -0.000873 -0.003589 -0.000802  0.010552 -0.004194 -0.001249  0.000004 -0.000155
                                -0.000784  0.001377  0.001080  0.000613 -0.001592 -0.000107 -0.000495  0.001251  0.000431 -0.000555
                                -0.000235  0.044757  0.023275  0.025903  0.003479  0.009947  0.000233  0.000612  0.026639  0.007258
                                 0.004129  0.025876  0.004594  0.003088 -0.000154  0.003833  0.001462 -0.000071  0.000416  0.000390
                                 0.005683  0.002109  0.000040  0.000084

  12.1   2    -0.2128   -9.6231  0.000001  0.000027 -0.000000 -0.000003 -0.000001  0.002487  0.018803 -0.049730  0.000003  0.000019
                                -0.000054  0.000096  0.000741 -0.001971  0.000169  0.001344 -0.003572 -0.000189 -0.000036  0.000140
                                -0.000123 -0.000266 -0.000506 -0.000018  0.000162 -0.000306 -0.000683  0.000343 -0.000031 -0.000011
                                 0.000197  0.000447  0.000070 -0.000216  0.000134  0.000062  0.000135 -0.000048  0.000036  0.000047
                                 0.000158 -0.000166  0.000010  0.000010 -0.000029  0.000093 -0.000001 -0.000049 -0.000000 -0.000024
                                -0.000027  0.000339  0.002554 -0.007021 -0.000044 -0.000292  0.000788 -0.000197 -0.001422  0.003819
                                 0.000199  0.001344 -0.003575  0.000215  0.000326 -0.000936  0.000220  0.000412  0.000334  0.001325
                                -0.003680  0.000575  0.000948 -0.000461  0.001353 -0.003577  0.000115 -0.000105  0.000343 -0.000134
                                -0.000198  0.000178  0.000389 -0.000278  0.000489  0.000204 -0.000213  0.000185  0.000176  0.000341
                                -0.000048 -0.000000 -0.000021  0.000006  0.000002  0.000001 -0.000199 -0.001420  0.003783 -0.000525
                                -0.003767  0.010035  0.000000 -0.000020  0.000036 -0.000587  0.000993 -0.002551 -0.000069 -0.000416
                                -0.001252  0.002055 -0.005296 -0.000159 -0.000907  0.000000  0.000006  0.000000  0.000010  0.000025
                                -0.043133 -0.307267  0.818450  0.000070  0.000498 -0.001329 -0.003111 -0.022180  0.059026 -0.004716
                                -0.033653  0.089640 -0.002228 -0.000097  0.000823 -0.001366 -0.003050 -0.005000 -0.001411  0.005086
                                -0.003407 -0.007297 -0.001182 -0.001767  0.005082 -0.001217 -0.002268  0.000442  0.002339 -0.001062
                                 0.000318  0.000356  0.000499 -0.000657  0.000786  0.001645 -0.001886  0.000254  0.000462 -0.000477
                                 0.001238 -0.000007 -0.000014 -0.000009  0.000002 -0.000533 -0.003796  0.010110 -0.001413 -0.010059
                                 0.026783 -0.001300 -0.009241  0.024614  0.002561 -0.000333  0.000264  0.001443  0.003335  0.003084
                                -0.000204 -0.000218  0.001793  0.004092

  13.1   +    -0.1962  -10.3348  0.000703  0.020966 -0.000095  0.017506  0.037457  0.551124  0.382664  0.173683 -0.000509  0.001084
                                 0.000383  0.060940  0.047661  0.021228  0.080624  0.057085  0.025830 -0.000655 -0.001080 -0.000278
                                 0.001440 -0.000208 -0.001364 -0.003630 -0.000974  0.005976 -0.001840  0.000901  0.000454 -0.000051
                                -0.002993  0.000660  0.000027 -0.000504 -0.000567 -0.000067  0.000207  0.001403  0.000276 -0.000877
                                -0.000007 -0.000053  0.000010  0.000687  0.000995  0.000612 -0.002487 -0.138823 -0.002212 -0.098313
                                -0.081949 -0.497745 -0.412171 -0.182084  0.001498  0.002142  0.000888 -0.073205 -0.021098 -0.011818
                                -0.074984 -0.041942 -0.019808 -0.004839 -0.002481 -0.000060  0.008435 -0.000177 -0.010279 -0.005851
                                -0.000066  0.024370 -0.003261 -0.003465  0.003572  0.002261  0.012254 -0.002494 -0.000533  0.000393
                                -0.000100 -0.000174  0.000138 -0.004012 -0.001900 -0.000015 -0.000059 -0.000989 -0.000457 -0.000118
                                -0.006031 -0.003595  0.330155 -0.036932 -0.049658  0.010648  0.012618  0.001606  0.001265  0.026405
                                 0.000605  0.001607  0.026481  0.005406  0.003421 -0.001623  0.000560  0.000524  0.003176 -0.000115
                                -0.004703 -0.003233 -0.000473  0.006095  0.000696  0.000059 -0.072452 -0.000212 -0.038401 -0.029282
                                -0.200622 -0.028922 -0.021431 -0.000799  0.000991  0.000330 -0.048972 -0.013075 -0.007491 -0.043697
                                -0.008101 -0.005340 -0.000537  0.001283  0.000563  0.000482  0.000287 -0.000054  0.002503  0.000911
                                -0.000925  0.000618  0.003437 -0.000554 -0.000995 -0.009362  0.001423  0.000057  0.000038  0.000071
                                 0.000452 -0.000304 -0.000185 -0.000029  0.001128  0.000204  0.000558 -0.000240 -0.000695  0.000213
                                 0.000254  0.030346 -0.007340 -0.005428 -0.003265 -0.002681  0.000119 -0.000096 -0.006135  0.000780
                                -0.000032 -0.007361 -0.003055 -0.001546 -0.000144 -0.000975 -0.000363 -0.000211  0.000133 -0.000814
                                -0.000669 -0.000197 -0.000729  0.000885

  14.1   +    -0.1872  -10.1990  0.000000  0.000003  0.000000  0.000000  0.000010  0.024769  0.178180 -0.471035 -0.000028 -0.000203
                                 0.000537  0.004187  0.030096 -0.079560  0.005692  0.040995 -0.108371  0.001875  0.000728 -0.002424
                                 0.001331  0.002782  0.006366  0.002026 -0.007028  0.004393  0.009277  0.000775  0.000973 -0.002807
                                 0.000736  0.001402 -0.001036  0.000970 -0.000574 -0.000801 -0.001595  0.000410 -0.000387 -0.000913
                                 0.000974 -0.000351 -0.000648 -0.001338  0.000523 -0.000667  0.000000 -0.000008 -0.000000 -0.000006
                                -0.000020 -0.044057 -0.317361  0.839053  0.000040  0.000287 -0.000759 -0.003147 -0.022583  0.059675
                                -0.005269 -0.037920  0.100242  0.001365  0.000993 -0.003014  0.001101  0.002199  0.007526  0.003614
                                -0.011595  0.005541  0.011425  0.009132 -0.000355 -0.001260  0.005376  0.012087  0.001134 -0.001705
                                 0.000740  0.000830  0.001749 -0.000726  0.000875  0.002193 -0.004945  0.003485  0.001973  0.004076
                                -0.000998  0.000403  0.000054 -0.000007 -0.000010  0.000015 -0.000303 -0.002215  0.005857 -0.000800
                                -0.005784  0.015292 -0.000236 -0.001768  0.004729  0.000855 -0.001226  0.003097  0.000167  0.000687
                                 0.002972 -0.005719  0.014684  0.000172  0.001844  0.000000 -0.000001  0.000000  0.000011 -0.000028
                                 0.002227  0.016507 -0.043848 -0.000007 -0.000057  0.000151 -0.000038 -0.000137  0.000294  0.000888
                                 0.006607 -0.017534  0.000170 -0.000062  0.000127  0.000085  0.000205  0.000810 -0.000593  0.001404
                                 0.000320  0.000866  0.001324 -0.001532  0.003800  0.000355  0.001207 -0.000004 -0.000121  0.000015
                                -0.000013 -0.000008 -0.000056  0.000094  0.000214 -0.000081 -0.000307  0.000062  0.000170 -0.000290
                                 0.000559 -0.000048 -0.000007  0.000035 -0.000014  0.000028  0.000205 -0.000548  0.000069  0.000475
                                -0.001266 -0.000081 -0.000653  0.001739 -0.000104  0.000003  0.000018 -0.000061 -0.000139  0.000451
                                -0.000243  0.000552  0.000206  0.000519

 HOMO     14.1    -0.187202 =      -5.0940eV
 LUMO     15.1     0.157353 =       4.2818eV
 LUMO-HOMO         0.344555 =       9.3758eV


 **********************************************************************************************************************************
 DATASETS  * FILE   NREC   LENGTH (MB)   RECORD NAMES
              1      18        8.86       500      610      700      900      950      970     1000      129      960     1100   
                                          VAR    BASINP    GEOM    SYMINP    ZMAT    AOBASIS   BASIS     P2S    ABASIS      S 
                                         1400     1410     1200     1210     1080     1600     1650     1700   
                                           T        V       H0       H01     AOSYM     SMH    MOLCAS    OPER   

              2       6        2.30       500      610      700     1000      520     2100   
                                          VAR    BASINP    GEOM     BASIS   MCVARS     RHF  

 PROGRAMS   *        TOTAL       RHF       INT      FILE
 CPU TIMES  *        10.33      4.38      5.17      0.03
 REAL TIME  *        11.95 SEC
 DISK USED  *         2.47 GB      
 SF USED    *         0.14 MB      
 GA USED    *         0.00 MB       (max)       0.00 MB       (current)
 **********************************************************************************************************************************


1PROGRAM * CCSD (Unrestricted open-shell coupled cluster)     Authors: C. Hampel, H.-J. Werner, 1991, M. Deegan, P.J. Knowles, 1992


 Convergence thresholds:  THRVAR = 1.00D-12  THRDEN = 1.00D-08

 CCSD(T)     terms to be evaluated (factor= 1.000)


 Number of core orbitals:           3 (   3 )
 Number of closed-shell orbitals:   9 (   9 )
 Number of active  orbitals:        2 (   2 )
 Number of external orbitals:     170 ( 170 )

 Memory could be reduced to 103.22 Mwords without degradation in triples

 Number of N-1 electron functions:              20
 Number of N-2 electron functions:             190
 Number of singly external CSFs:              3440
 Number of doubly external CSFs:           4284090
 Total number of CSFs:                     4287530

 Molecular orbitals read from record     2100.2  Type=RHF/CANONICAL (state 1.1)

 Integral transformation finished. Total CPU:  14.84 sec, npass=  1  Memory used:  42.06 MW

 Starting RMP2 calculation

 ITER.      SQ.NORM     CORR.ENERGY   TOTAL ENERGY   ENERGY CHANGE        DEN1      VAR(S)    VAR(P)  DIIS     TIME
   1      1.20331614    -0.73184165  -206.03476995    -0.73184165    -0.00245688  0.67D-04  0.95D-03  1  1    16.66
   2      1.20592679    -0.73451841  -206.03744671    -0.00267676    -0.00001185  0.15D-05  0.56D-05  2  2    18.31
   3      1.20608255    -0.73460021  -206.03752851    -0.00008180    -0.00000013  0.37D-07  0.52D-07  3  3    20.08
   4      1.20608739    -0.73460017  -206.03752846     0.00000005    -0.00000000  0.96D-09  0.68D-09  4  4    21.99
   5      1.20608737    -0.73460001  -206.03752831     0.00000015    -0.00000000  0.35D-10  0.71D-11  5  5    24.04
   6      1.20608741    -0.73460003  -206.03752832    -0.00000001    -0.00000000  0.11D-11  0.71D-13  6  6    26.17
   7      1.20608741    -0.73460003  -206.03752833    -0.00000000    -0.00000000  0.29D-13  0.24D-14  6  1    28.30

 Norm of t1 vector:      0.07980027      S-energy:    -0.00954250      T1 diagnostic:  0.00109284
 Norm of t2 vector:      0.44689969      P-energy:    -0.72505753
                                         Alpha-Beta:  -0.52922725
                                         Alpha-Alpha: -0.09961315
                                         Beta-Beta:   -0.09621714

 Spin contamination <S**2-Sz**2-Sz>     0.00587221
  Reference energy                   -205.302928298168
  RHF-RMP2 correlation energy          -0.734600027696
 !RHF-RMP2 energy                    -206.037528325864

 Starting UCCSD calculation

 ITER.      SQ.NORM     CORR.ENERGY   TOTAL ENERGY   ENERGY CHANGE        DEN1      VAR(S)    VAR(P)  DIIS     TIME
   1      1.18714620    -0.70463499  -206.00756329    -0.70463499    -0.02212160  0.59D-02  0.37D-02  1  1    46.37
   2      1.20451523    -0.72327533  -206.02620363    -0.01864033    -0.00242773  0.56D-03  0.66D-03  2  2    64.15
   3      1.21447918    -0.72643961  -206.02936791    -0.00316429    -0.00047047  0.37D-03  0.58D-04  3  3    82.76
   4      1.22138337    -0.72813644  -206.03106474    -0.00169682    -0.00013914  0.10D-03  0.18D-04  4  4   101.63
   5      1.22686980    -0.72889640  -206.03182470    -0.00075996    -0.00003775  0.34D-04  0.37D-05  5  5   120.00
   6      1.22992606    -0.72919830  -206.03212660    -0.00030190    -0.00000890  0.61D-05  0.15D-05  6  6   138.58
   7      1.23124999    -0.72930678  -206.03223508    -0.00010848    -0.00000239  0.20D-05  0.38D-06  6  1   157.40
   8      1.23163062    -0.72934606  -206.03227436    -0.00003927    -0.00000064  0.51D-06  0.88D-07  6  2   176.14
   9      1.23173477    -0.72934525  -206.03227355     0.00000081    -0.00000015  0.12D-06  0.27D-07  6  3   194.79
  10      1.23184098    -0.72936300  -206.03229130    -0.00001775    -0.00000004  0.30D-07  0.56D-08  6  4   214.43
  11      1.23183898    -0.72935971  -206.03228800     0.00000330    -0.00000001  0.56D-08  0.22D-08  6  6   233.22
  12      1.23184914    -0.72935927  -206.03228757     0.00000043    -0.00000000  0.18D-08  0.35D-09  6  5   251.99
  13      1.23184856    -0.72935898  -206.03228728     0.00000029    -0.00000000  0.45D-09  0.98D-10  6  1   270.68
  14      1.23184779    -0.72935829  -206.03228659     0.00000068    -0.00000000  0.11D-09  0.31D-10  6  2   289.37
  15      1.23184596    -0.72935828  -206.03228658     0.00000002    -0.00000000  0.38D-10  0.67D-11  6  6   307.86
  16      1.23184543    -0.72935820  -206.03228650     0.00000008    -0.00000000  0.61D-11  0.19D-11  6  3   326.54
  17      1.23184498    -0.72935817  -206.03228647     0.00000003    -0.00000000  0.16D-11  0.55D-12  6  1   345.58
  18      1.23184482    -0.72935818  -206.03228648    -0.00000000    -0.00000000  0.28D-12  0.77D-13  6  4   364.91

 Norm of t1 vector:      0.17681608      S-energy:    -0.00937526      T1 diagnostic:  0.02480998
                                                                       D1 diagnostic:  0.08353750
 Norm of t2 vector:      0.44786258      P-energy:    -0.71998292
                                         Alpha-Beta:  -0.54825679
                                         Alpha-Alpha: -0.08849005
                                         Beta-Beta:   -0.08323608

 Singles amplitudes (print threshold =  0.500E-01):

         I         SYM. A    A   T(IA) [Beta-Beta]

         5         1         2      0.11795566
         8         1         1      0.05669384

 Doubles amplitudes (print threshold =  0.500E-01):

         I         J         SYM. A    SYM. B    A         B      T(IJ, AB) [Beta-Beta]

         6         5         1         1         1         2      0.06054062
         6         5         1         1         2         1     -0.06054062

 Spin contamination <S**2-Sz**2-Sz>     0.00500001

 Memory could be reduced to 112.06 Mwords without degradation in triples


 RESULTS
 =======

  Reference energy                   -205.302928298168
  UCCSD singles energy                 -0.009375260414
  UCCSD pair energy                    -0.719982917101
  UCCSD correlation energy             -0.729358177515
  Triples (T) contribution             -0.033280325751
  Total correlation energy             -0.762638503266

  RHF-UCCSD energy                   -206.032286475684
  RHF-UCCSD[T] energy                -206.067362667667
  RHF-UCCSD-T energy                 -206.064911782979
 !RHF-UCCSD(T) energy                -206.065566801434

 Program statistics:

 Available memory in ccsd:               499998822
 Min. memory needed in ccsd:              12621247
 Max. memory used in ccsd:                17904231
 Max. memory used in cckext:              13779035 (18 integral passes)
 Max. memory used in cckint:              42062274 ( 1 integral passes)



 **********************************************************************************************************************************
 DATASETS  * FILE   NREC   LENGTH (MB)   RECORD NAMES
              1      18        8.86       500      610      700      900      950      970     1000      129      960     1100   
                                          VAR    BASINP    GEOM    SYMINP    ZMAT    AOBASIS   BASIS     P2S    ABASIS      S 
                                         1400     1410     1200     1210     1080     1600     1650     1700   
                                           T        V       H0       H01     AOSYM     SMH    MOLCAS    OPER   

              2       6        2.30       500      610      700     1000      520     2100   
                                          VAR    BASINP    GEOM     BASIS   MCVARS     RHF  

 PROGRAMS   *        TOTAL  UCCSD(T)       RHF       INT      FILE
 CPU TIMES  *       550.72    540.34      4.38      5.17      0.03
 REAL TIME  *       592.31 SEC
 DISK USED  *         8.39 GB      
 SF USED    *         1.83 GB      
 GA USED    *         0.00 MB       (max)       0.00 MB       (current)
 **********************************************************************************************************************************


 PROGRAM * HESSIAN

 Computing numerical hessian using default procedure for command UCCSD(T)

 Using no symmetry in wavefunction calculations

 Running default procedure: RHF-SCF000  UCCSD(T)


 *** Long output written to logfile /home/alex/hno/molpro/cc/mecp/hess_t_CCmecp.log ***


 Numerically approximating hessian using central energy differences

 Task list generated. Total number of displacements:    240

   24 tasks completed, CPU=3h 53m 41s Elapsed=3h 55m 42s
   48 tasks completed, CPU=7h 49m 2s Elapsed=7h 52m 54s
   72 tasks completed, CPU=11h 43m 14s Elapsed=11h 49m 15s
   96 tasks completed, CPU=15h 37m 26s Elapsed=15h 45m 40s
  120 tasks completed, CPU=19h 30m 56s Elapsed=19h 41m 7s
  144 tasks completed, CPU=23h 26m 42s Elapsed=23h 38m 36s
  168 tasks completed, CPU=1d 3h 23m 28s Elapsed=1d 3h 37m 6s
  192 tasks completed, CPU=1d 7h 21m 43s Elapsed=1d 7h 37m 9s
  216 tasks completed, CPU=1d 11h 20m 5s Elapsed=1d 11h 37m 32s
  240 tasks completed, CPU=1d 15h 18m 23s Elapsed=1d 15h 37m 40s

 Numerical UCCSD(T) hessian completed. CPU-time:141503.16 sec, Elapsed:142660.83 sec

 UCCSD(T) hessian saved to record  5300.2

 FREQUENCIES * CALCULATION OF HARMONIC VIBRATIONAL SPECTRA FOR UCCSD(T)


 Permanent Dipole Moment [debye]
   1-  3    0.000000    0.000000    0.000000

 Dipole Moment Norm    0.0000000 [debye]

 Dipole Moment Derivatives [debye/ang]
                   1             2             3             4             5             6             7             8
         1     0.0000000     0.0000000     0.0000000     0.0000000     0.0000000     0.0000000     0.0000000     0.0000000
         2     0.0000000     0.0000000     0.0000000     0.0000000     0.0000000     0.0000000     0.0000000     0.0000000
         3     0.0000000     0.0000000     0.0000000     0.0000000     0.0000000     0.0000000     0.0000000     0.0000000
                   9            10            11            12            13            14            15
         1     0.0000000     0.0000000     0.0000000     0.0000000     0.0000000     0.0000000     0.0000000
         2     0.0000000     0.0000000     0.0000000     0.0000000     0.0000000     0.0000000     0.0000000
         3     0.0000000     0.0000000     0.0000000     0.0000000     0.0000000     0.0000000     0.0000000

 Projecting out rotations and translations

 Force Constants (Second Derivatives of the Energy) in [a.u.]
                             GX1         GY1         GZ1         GX2         GY2     
           GX1           0.2319125
           GY1          -0.2986810   0.4297358
           GZ1          -0.1007705   0.1468984   0.0501657
           GX2          -0.2161785   0.3041861   0.1037089   0.3675866
           GY2           0.2739255  -0.4187552  -0.1440405  -0.2638058   0.4385466
           GZ2           0.0922523  -0.1424678  -0.0489065  -0.0811582   0.1475193
           GX3          -0.0094124  -0.0191418  -0.0077551  -0.0788385   0.0248968
           GY3           0.0294577  -0.0198374  -0.0059814  -0.0227963  -0.0181983
           GZ3           0.0105942  -0.0084999  -0.0026509  -0.0115818   0.0028166
           GX4          -0.0050396   0.0093589   0.0032925  -0.0667071  -0.0317434
           GY4          -0.0041617   0.0081851   0.0029686  -0.0162923  -0.0021844
           GZ4          -0.0017764   0.0036489   0.0011226  -0.0101373  -0.0062010
           GX5          -0.0012820   0.0042778   0.0015242  -0.0058624  -0.0032731
           GY5          -0.0005405   0.0006717   0.0001549  -0.0012918   0.0005913
           GZ5          -0.0002995   0.0004204   0.0002691  -0.0008315  -0.0000944
                             GZ2         GX3         GY3         GZ3         GX4     
           GZ2           0.0633768
           GX3           0.0064771   0.0482963
           GY3           0.0003469  -0.0238808   0.0664795
           GZ3          -0.0217585  -0.0086207   0.0083502   0.0437525
           GX4          -0.0160189   0.0303383   0.0320938   0.0146232   0.0632609
           GY4          -0.0054378   0.0129906  -0.0246051  -0.0018750   0.0319304
           GZ4           0.0070088   0.0073857  -0.0008873  -0.0178197   0.0149292
           GX5          -0.0015523   0.0096163  -0.0148744  -0.0050148  -0.0218524
           GY5           0.0000394   0.0051352  -0.0038386  -0.0007919  -0.0416397
           GZ5           0.0002793   0.0025130  -0.0018284  -0.0015235  -0.0168260
                             GY4         GZ4         GX5         GY5         GZ5     
           GY4           0.4652919
           GZ4           0.1736143   0.0735049
           GX5          -0.0244670  -0.0104012   0.0193805
           GY5          -0.4466875  -0.1701749   0.0383367   0.4492631
           GZ5          -0.1692701  -0.0638167   0.0154440   0.1707725   0.0647918


 Atomic Masses
   1-  5   15.999400   14.006700    1.007940   15.999400    1.007940

 Mass weighted Second Derivative Matrix
                             GX1         GY1         GZ1         GX2         GY2     
           GX1           0.0144951
           GY1          -0.0186683   0.0268595
           GZ1          -0.0062984   0.0091815   0.0031355
           GX2          -0.0144408   0.0203198   0.0069278   0.0262436
           GY2           0.0182984  -0.0279731  -0.0096220  -0.0188343   0.0313098
           GZ2           0.0061625  -0.0095169  -0.0032670  -0.0057942   0.0105321
           GX3          -0.0023439  -0.0047667  -0.0019312  -0.0209823   0.0066261
           GY3           0.0073355  -0.0049399  -0.0014895  -0.0060671  -0.0048433
           GZ3           0.0026381  -0.0021166  -0.0006601  -0.0030824   0.0007496
           GX4          -0.0003150   0.0005850   0.0002058  -0.0044561  -0.0021205
           GY4          -0.0002601   0.0005116   0.0001855  -0.0010883  -0.0001459
           GZ4          -0.0001110   0.0002281   0.0000702  -0.0006772  -0.0004142
           GX5          -0.0003192   0.0010652   0.0003796  -0.0015602  -0.0008711
           GY5          -0.0001346   0.0001673   0.0000386  -0.0003438   0.0001574
           GZ5          -0.0000746   0.0001047   0.0000670  -0.0002213  -0.0000251
                             GZ2         GX3         GY3         GZ3         GX4     
           GZ2           0.0045247
           GX3           0.0017238   0.0479159
           GY3           0.0000923  -0.0236927   0.0659558
           GZ3          -0.0057909  -0.0085528   0.0082844   0.0434079
           GX4          -0.0010701   0.0075548   0.0079919   0.0036414   0.0039540
           GY4          -0.0003632   0.0032349  -0.0061271  -0.0004669   0.0019957
           GZ4           0.0004682   0.0018392  -0.0002210  -0.0044374   0.0009331
           GX5          -0.0004131   0.0095405  -0.0147572  -0.0049753  -0.0054416
           GY5           0.0000105   0.0050947  -0.0038083  -0.0007857  -0.0103690
           GZ5           0.0000743   0.0024932  -0.0018140  -0.0015115  -0.0041900
                             GY4         GZ4         GX5         GY5         GZ5     
           GY4           0.0290818
           GZ4           0.0108513   0.0045942
           GX5          -0.0060927  -0.0025901   0.0192278
           GY5          -0.1112332  -0.0423766   0.0380347   0.4457241
           GZ5          -0.0421513  -0.0158915   0.0153224   0.1694273   0.0642814


 Mass Weighted 2nd Derivative Matrix Eigenvalues
   1- 10   -0.002268   -0.000206   -0.000000   -0.000000   -0.000000   -0.000000    0.000000    0.000000    0.002740    0.013678
  11- 15    0.040133    0.042095    0.090948    0.098033    0.545556

 Mass Weighted 2nd Derivative Matrix Eigenvectors
                   1             2             3             4             5             6             7             8
         1    -0.4141891     0.0142578     0.5782689     0.0395507     0.0548974     0.0013665     0.0223915    -0.1724425
         2    -0.0621381     0.0649277     0.4007763    -0.2679757    -0.2704235     0.0538853    -0.1710296     0.5709485
         3    -0.0459482    -0.1671202     0.0070126     0.6792160    -0.1704006     0.4335386     0.4772487     0.1434727
         4    -0.2760222    -0.0140127     0.3390780    -0.1082372     0.0528767     0.0876099     0.1514850    -0.4232707
         5     0.1065339    -0.0901038     0.2012363    -0.0938859    -0.5453648     0.1344864     0.0240499     0.2504571
         6     0.0270318     0.2298990     0.1129260    -0.1106846     0.6970506     0.3315605     0.1682266     0.4427805
         7    -0.3866009    -0.0018724     0.1054568    -0.0167375     0.0158171     0.0155794     0.0370493    -0.0927130
         8    -0.1394588    -0.0111530     0.0026505    -0.0827944    -0.0976820     0.0443635     0.0726522     0.0223937
         9    -0.0728898     0.0236437     0.0050623    -0.0284139     0.0964231     0.1346074    -0.0349033     0.0358025
        10     0.7144602     0.0116358     0.4781698    -0.0164017     0.0705445     0.0293806     0.1365527    -0.2848547
        11    -0.0020056     0.1019921    -0.2323745    -0.5874449    -0.1786573     0.2183652     0.6010442    -0.1284214
        12     0.0352255    -0.2669656    -0.0911463    -0.1387429     0.0045797     0.7427434    -0.5180575    -0.2251738
        13     0.2192298    -0.0490550     0.1697825     0.0325789     0.0181805    -0.0147352     0.0049246    -0.0059763
        14    -0.0021190    -0.3179912    -0.0488326    -0.2098486     0.0410364     0.0416446     0.1469239     0.0034863
        15     0.0148417     0.8488010    -0.0582718     0.1218980    -0.2251730     0.2257179    -0.1135360    -0.1642899
                   9            10            11            12            13            14            15
         1     0.5170680     0.1695057    -0.1754285    -0.0008842     0.2472333     0.2665326    -0.0003397
         2     0.1668639    -0.0004594     0.1917917     0.0008219    -0.2721368    -0.4353594     0.0001928
         3     0.0915015     0.0084019     0.0631828     0.0003412    -0.0899608    -0.1506815     0.0000439
         4    -0.4926307    -0.1520736    -0.3105456     0.0053439    -0.1708806    -0.4391698    -0.0005358
         5    -0.3791845    -0.1813938    -0.3207423     0.0487044     0.1881844     0.4848286     0.0005692
         6    -0.1711593    -0.0756995    -0.1364842    -0.1341780     0.0622762     0.1603422     0.0001964
         7    -0.2539801    -0.1095591     0.6549103    -0.0450006    -0.3621675     0.4358308     0.0108818
         8    -0.2458040     0.1807444     0.3910481    -0.3443955     0.7304875    -0.2407657    -0.0089439
         9    -0.1058805     0.0612223     0.1765140     0.9202523     0.2564632    -0.0679496    -0.0027553
        10     0.0744401    -0.2224353     0.3097369     0.0066430     0.0569650     0.0122579    -0.0217306
        11     0.2278484     0.1379410     0.0077858     0.0380125    -0.0897464     0.0433197    -0.2253376
        12     0.0923460     0.0398549     0.0195113    -0.1003316    -0.0308163     0.0169362    -0.0857669
        13    -0.2662507     0.8873355    -0.0323672     0.0021354    -0.2127951     0.0905582     0.0790466
        14     0.0867324    -0.0522933     0.0094647     0.0081143     0.0097951    -0.0046290     0.9038302
        15     0.0114510     0.0287076     0.0028046    -0.0216904    -0.0074229     0.0030885     0.3435557

 Imaginary Vibration  Wavenumber
        Nr             [1/cm] 
        1              244.79
        2               73.70

   Low Vibration      Wavenumber
        Nr             [1/cm] 
        1                0.00
        2                0.00
        3                0.00
        4                0.00
        5                0.00
        6                0.00

     Vibration        Wavenumber
        Nr             [1/cm] 
        1              269.07
        2              601.20
        3             1029.80
        4             1054.67
        5             1550.24
        6             1609.49
        7             3796.83

 FREQUENCIES * CALCULATION OF NORMAL MODES FOR UCCSD(T)


 Atomic Coordinates

  Nr  Atom  Charge       X              Y              Z

   1   O     8.00    2.387077294   -0.841839165   -0.309391253
   2   N     7.00    1.117636002    1.025372580    0.330177485
   3   H     1.00   -1.039609777    0.558443741    0.040641773
   4   O     8.00   -3.574498614    0.094117432   -0.267145859
   5   H     1.00   -3.709157096   -1.604935144   -0.912137167

 Frequencies dumped to record   5400.2

 Gradient norm at reference geometry: 0.50709D-01

 ?WARNING: GRADIENT NORM NOT ZERO!

 Molecule is not in standard orientation!
 Symmetry information for normal modes not available!

 Normal Modes

                              1 A         2 A         3 A         4 A         5 A  
 Wavenumbers [cm-1]          269.07      601.20     1029.80     1054.67     1550.24
 Intensities [km/mol]          0.00        0.00        0.00        0.00        0.00
 Intensities [relative]        0.00        0.00        0.00        0.00        0.00
           GX1              0.12927     0.04238    -0.04386    -0.00022     0.06181
           GY1              0.04172    -0.00011     0.04795     0.00021    -0.06804
           GZ1              0.02288     0.00210     0.01580     0.00009    -0.02249
           GX2             -0.13163    -0.04063    -0.08298     0.00143    -0.04566
           GY2             -0.10132    -0.04847    -0.08570     0.01301     0.05028
           GZ2             -0.04573    -0.02023    -0.03647    -0.03585     0.01664
           GX3             -0.25298    -0.10913     0.65233    -0.04482    -0.36074
           GY3             -0.24483     0.18003     0.38950    -0.34304     0.72760
           GZ3             -0.10546     0.06098     0.17582     0.91662     0.25545
           GX4              0.01861    -0.05561     0.07744     0.00166     0.01424
           GY4              0.05696     0.03449     0.00195     0.00950    -0.02244
           GZ4              0.02309     0.00996     0.00488    -0.02508    -0.00770
           GX5             -0.26520     0.88383    -0.03224     0.00213    -0.21196
           GY5              0.08639    -0.05209     0.00943     0.00808     0.00976
           GZ5              0.01141     0.02859     0.00279    -0.02160    -0.00739

                              6 A         7 A  
 Wavenumbers [cm-1]         1609.49     3796.83
 Intensities [km/mol]          0.00        0.00
 Intensities [relative]        0.00        0.00
           GX1              0.06663    -0.00008
           GY1             -0.10884     0.00005
           GZ1             -0.03767     0.00001
           GX2             -0.11734    -0.00014
           GY2              0.12954     0.00015
           GZ2              0.04284     0.00005
           GX3              0.43411     0.01084
           GY3             -0.23982    -0.00891
           GZ3             -0.06768    -0.00274
           GX4              0.00306    -0.00543
           GY4              0.01083    -0.05634
           GZ4              0.00423    -0.02144
           GX5              0.09020     0.07873
           GY5             -0.00461     0.90026
           GZ5              0.00308     0.34220


 Normal Modes of imaginary frequencies

                                  1           2
 Wavenumbers [cm-1]          244.79       73.70
 Intensities [km/mol]          0.00        0.00
 Intensities [relative]        0.00        0.00
           GX1             -0.10355     0.00356
           GY1             -0.01553     0.01623
           GZ1             -0.01149    -0.04178
           GX2             -0.07375    -0.00374
           GY2              0.02847    -0.02408
           GZ2              0.00722     0.06143
           GX3             -0.38508    -0.00187
           GY3             -0.13891    -0.01111
           GZ3             -0.07260     0.02355
           GX4              0.17862     0.00291
           GY4             -0.00050     0.02550
           GZ4              0.00881    -0.06674
           GX5              0.21836    -0.04886
           GY5             -0.00211    -0.31674
           GZ5              0.01478     0.84545


 Normal Modes of low/zero frequencies

                                  1           2           3           4           5
 Wavenumbers [cm-1]            0.00        0.00        0.00        0.00        0.00
 Intensities [km/mol]          0.00        0.00        0.00        0.00        0.00
 Intensities [relative]        0.00        0.00        0.00        0.00        0.00
           GX1              0.14457     0.00989     0.01372     0.00034     0.00560
           GY1              0.10020    -0.06700    -0.06761     0.01347    -0.04276
           GZ1              0.00175     0.16981    -0.04260     0.10839     0.11931
           GX2              0.09060    -0.02892     0.01413     0.02341     0.04048
           GY2              0.05377    -0.02509    -0.14572     0.03593     0.00643
           GZ2              0.03017    -0.02957     0.18625     0.08859     0.04495
           GX3              0.10504    -0.01667     0.01575     0.01552     0.03690
           GY3              0.00264    -0.08247    -0.09730     0.04419     0.07237
           GZ3              0.00504    -0.02830     0.09604     0.13408    -0.03477
           GX4              0.11954    -0.00410     0.01764     0.00735     0.03414
           GY4             -0.05809    -0.14686    -0.04467     0.05459     0.15026
           GZ4             -0.02279    -0.03469     0.00114     0.18569    -0.12952
           GX5              0.16911     0.03245     0.01811    -0.01468     0.00491
           GY5             -0.04864    -0.20902     0.04087     0.04148     0.14634
           GZ5             -0.05804     0.12142    -0.22428     0.22483    -0.11309

                                  6
 Wavenumbers [cm-1]            0.00
 Intensities [km/mol]          0.00
 Intensities [relative]        0.00
           GX1             -0.04311
           GY1              0.14274
           GZ1              0.03587
           GX2             -0.11310
           GY2              0.06692
           GZ2              0.11831
           GX3             -0.09235
           GY3              0.02231
           GZ3              0.03566
           GX4             -0.07122
           GY4             -0.03211
           GZ4             -0.05629
           GX5             -0.00595
           GY5              0.00347
           GZ5             -0.16364


 Zero point energy:  0.02257959 [H]     4955.65 [1/CM]       59.28 [KJ/MOL]
 Frequency information read from record  5400.2

        UCCSD(T)        RHF-SCF 
   -206.06556680   -205.30292830
 **********************************************************************************************************************************
 Variable memory released
